                         Program Version 6.0.0  -   RELEASE   -
|  1> # ORCA input file
|  2> #
|  3> !B3LYP def2-TZVP Opt CPCM(WATER)
|  4> * xyz 0 1
|  5>    C       -0.49838         1.45672         0.09896
|  6>    C        0.83636         1.86187         0.13987
|  7>    C        1.85850         0.90964         0.07692
|  8>    C        1.52705        -0.44553         0.10327
|  9>    C        0.19399        -0.85911         0.06588
| 10>    C       -0.81311         0.09845         0.04328
| 11>   Cl       -2.45804        -0.38995        -0.04430
| 12>    O        2.48623        -1.41804         0.15924
| 13>    O        3.19540         1.23915         0.00408
| 14>    C        3.55840         2.36555        -0.71342
| 15>    C        4.59924         3.16189        -0.21840
| 16>    C        4.97545         4.33057        -0.88996
| 17>    C        4.31222         4.69779        -2.05616
| 18>    C        3.30213         3.89395        -2.58058
| 19>    C        2.94419         2.71337        -1.92599
| 20>   Cl        4.74503         6.15332        -2.86475
| 21>   Cl        5.43890         2.74189         1.23085
| 22>    H       -1.28677         2.20447         0.09898
| 23>    H        1.06264         2.92223         0.19335
| 24>    H       -0.04081        -1.92109         0.05235
| 25>    H        3.32941        -0.97731         0.37369
| 26>    H        5.77651         4.95189        -0.49678
| 27>    H        2.78688         4.18033        -3.49530
| 28>    H        2.16802         2.08687        -2.36091
| 29> *
| 30>
| 31>                          ****END OF INPUT****
 Total Charge           Charge          ....    0
 Multiplicity           Mult            ....    1
 Number of Electrons    NEL             ....  146
FINAL SINGLE POINT ENERGY     -1992.299605212134
FINAL SINGLE POINT ENERGY     -1992.303858791304
FINAL SINGLE POINT ENERGY     -1992.305076578107
FINAL SINGLE POINT ENERGY     -1992.305259116672
FINAL SINGLE POINT ENERGY     -1992.305362550942
FINAL SINGLE POINT ENERGY     -1992.305400658719
FINAL SINGLE POINT ENERGY     -1992.305459504597
FINAL SINGLE POINT ENERGY     -1992.305523177509
FINAL SINGLE POINT ENERGY     -1992.305589205484
FINAL SINGLE POINT ENERGY     -1992.305691391879
FINAL SINGLE POINT ENERGY     -1992.305721435066
FINAL SINGLE POINT ENERGY     -1992.305739008390
FINAL SINGLE POINT ENERGY     -1992.305742465932
FINAL SINGLE POINT ENERGY     -1992.305743624114
                    ***********************HURRAY********************

CARTESIAN COORDINATES (ANGSTROEM)
---------------------------------
  C     -0.725340    1.310644    0.341894
  C      0.539018    1.882252    0.425281
  C      1.668473    1.109305    0.208740
  C      1.559292   -0.254968   -0.076089
  C      0.295950   -0.836513   -0.155295
  C     -0.823486   -0.044511    0.050279
  Cl    -2.409074   -0.783517   -0.055521
  O      2.650170   -1.034440   -0.273761
  O      2.951263    1.619406    0.358894
  C      3.432754    2.555379   -0.521489
  C      4.570210    3.270756   -0.135176
  C      5.139655    4.212519   -0.980156
  C      4.562063    4.439806   -2.221599
  C      3.435518    3.738954   -2.626380
  C      2.875686    2.796335   -1.773227
  Cl     5.274241    5.631616   -3.287128
  Cl     5.290978    2.979917    1.423975
  H     -1.611368    1.906777    0.506914
  H      0.649463    2.933729    0.658211
  H      0.208175   -1.891565   -0.375518
  H      3.451878   -0.504071   -0.147202
  H      6.017699    4.758721   -0.666491
  H      2.995563    3.918076   -3.597576
  H      2.000659    2.244312   -2.087412

 Multiplicity           Mult            ....    1
 Number of Electrons    NEL             ....  146
 Basis Dimension        Dim             ....  587

ORBITAL ENERGIES
----------------

  NO   OCC          E(Eh)            E(eV)
   0   2.0000    -101.536309     -2762.9434
   1   2.0000    -101.532101     -2762.8289
   2   2.0000    -101.530432     -2762.7835
   3   2.0000     -19.189186      -522.1643
   4   2.0000     -19.167804      -521.5825
   5   2.0000     -10.261368      -279.2260
   6   2.0000     -10.253012      -278.9986
   7   2.0000     -10.247648      -278.8527
   8   2.0000     -10.245149      -278.7847
   9   2.0000     -10.242573      -278.7146
  10   2.0000     -10.242276      -278.7065
  11   2.0000     -10.199628      -277.5460
  12   2.0000     -10.194565      -277.4082
  13   2.0000     -10.193325      -277.3745
  14   2.0000     -10.191723      -277.3309
  15   2.0000     -10.187997      -277.2295
  16   2.0000     -10.185662      -277.1660
  17   2.0000      -9.468204      -257.6429
  18   2.0000      -9.464131      -257.5321
  19   2.0000      -9.462518      -257.4882
  20   2.0000      -7.229800      -196.7329
  21   2.0000      -7.225551      -196.6173
  22   2.0000      -7.223878      -196.5717
  23   2.0000      -7.221365      -196.5033
  24   2.0000      -7.220856      -196.4895
  25   2.0000      -7.217255      -196.3915
  26   2.0000      -7.216978      -196.3840
  27   2.0000      -7.215687      -196.3488
  28   2.0000      -7.215374      -196.3403
  29   2.0000      -1.106443       -30.1078
  30   2.0000      -1.071885       -29.1675
  31   2.0000      -0.913479       -24.8570
  32   2.0000      -0.897374       -24.4188
  33   2.0000      -0.879342       -23.9281
  34   2.0000      -0.844583       -22.9823
  35   2.0000      -0.833128       -22.6706
  36   2.0000      -0.767619       -20.8880
  37   2.0000      -0.764165       -20.7940
  38   2.0000      -0.757743       -20.6192
  39   2.0000      -0.721187       -19.6245
  40   2.0000      -0.653922       -17.7941
  41   2.0000      -0.635866       -17.3028
  42   2.0000      -0.627982       -17.0883
  43   2.0000      -0.606372       -16.5002
  44   2.0000      -0.574071       -15.6213
  45   2.0000      -0.543585       -14.7917
  46   2.0000      -0.518589       -14.1115
  47   2.0000      -0.511240       -13.9116
  48   2.0000      -0.498551       -13.5663
  49   2.0000      -0.479320       -13.0430
  50   2.0000      -0.464828       -12.6486
  51   2.0000      -0.454208       -12.3596
  52   2.0000      -0.448083       -12.1930
  53   2.0000      -0.443417       -12.0660
  54   2.0000      -0.438914       -11.9435
  55   2.0000      -0.419947       -11.4273
  56   2.0000      -0.416309       -11.3283
  57   2.0000      -0.404584       -11.0093
  58   2.0000      -0.401293       -10.9197
  59   2.0000      -0.388265       -10.5652
  60   2.0000      -0.384292       -10.4571
  61   2.0000      -0.375556       -10.2194
  62   2.0000      -0.369130       -10.0445
  63   2.0000      -0.357926        -9.7397
  64   2.0000      -0.331241        -9.0135
  65   2.0000      -0.327059        -8.8997
  66   2.0000      -0.321601        -8.7512
  67   2.0000      -0.320868        -8.7313
  68   2.0000      -0.319084        -8.6827
  69   2.0000      -0.269392        -7.3305
  70   2.0000      -0.261115        -7.1053
  71   2.0000      -0.245349        -6.6763
  72   2.0000      -0.233576        -6.3559
  73   0.0000      -0.038473        -1.0469
  74   0.0000      -0.028367        -0.7719
  75   0.0000      -0.022222        -0.6047
  76   0.0000      -0.011265        -0.3065
  77   0.0000       0.002597         0.0707

MULLIKEN ATOMIC CHARGES
-----------------------
   0 C :   -0.206393
   1 C :   -0.179592
   2 C :    0.202109
   3 C :    0.180627
   4 C :   -0.273073
   5 C :    0.196672
   6 Cl:   -0.136018
   7 O :   -0.421406
   8 O :   -0.336461
   9 C :    0.299173
  10 C :    0.037552
  11 C :   -0.201672
  12 C :    0.161580
  13 C :   -0.188042
  14 C :   -0.210922
  15 Cl:   -0.130800
  16 Cl:   -0.107611
  17 H :    0.152112
  18 H :    0.165692
  19 H :    0.147974
  20 H :    0.360364
  21 H :    0.156039
  22 H :    0.156444
  23 H :    0.175650
Sum of atomic charges:    0.0000000

LOEWDIN ATOMIC CHARGES
----------------------
   0 C :   -0.154224
   1 C :   -0.098747
   2 C :   -0.224211
   3 C :   -0.248829
   4 C :   -0.120852
   5 C :   -0.417211
   6 Cl:    0.362245
   7 O :    0.091062
   8 O :    0.309621
   9 C :   -0.237985
  10 C :   -0.395834
  11 C :   -0.139765
  12 C :   -0.423254
  13 C :   -0.132759
  14 C :   -0.102658
  15 Cl:    0.366761
  16 Cl:    0.393035
  17 H :    0.155046
  18 H :    0.164832
  19 H :    0.159479
  20 H :    0.208533
  21 H :    0.160139
  22 H :    0.158744
  23 H :    0.166831

  Mayer bond orders larger than 0.100000
B(  0-C ,  1-C ) :   1.3786 B(  0-C ,  5-C ) :   1.3405 B(  0-C , 17-H ) :   0.9730
B(  1-C ,  2-C ) :   1.3558 B(  1-C , 18-H ) :   0.9604 B(  2-C ,  3-C ) :   1.2986
B(  2-C ,  8-O ) :   0.8516 B(  3-C ,  4-C ) :   1.3616 B(  3-C ,  7-O ) :   1.1933
B(  4-C ,  5-C ) :   1.3626 B(  4-C , 19-H ) :   0.9743 B(  5-C ,  6-Cl) :   0.9199
B(  7-O , 20-H ) :   0.8425 B(  8-O ,  9-C ) :   1.0199 B(  9-C , 10-C ) :   1.2590
B(  9-C , 14-C ) :   1.3580 B( 10-C , 11-C ) :   1.3424 B( 10-C , 16-Cl) :   1.0251
B( 11-C , 12-C ) :   1.3255 B( 11-C , 21-H ) :   0.9706 B( 12-C , 13-C ) :   1.3450
B( 12-C , 15-Cl) :   0.9251 B( 13-C , 14-C ) :   1.3858 B( 13-C , 22-H ) :   0.9700
B( 14-C , 23-H ) :   0.9486

FINAL SINGLE POINT ENERGY     -1992.305743770077

DIPOLE MOMENT
-------------

Method             : SCF
Type of density    : Electron Density
Multiplicity       :   1
Irrep              :   0
Energy             : -1992.3057437700770151 Eh
Relativity type    :
Basis              : AO
                                X                 Y                 Z
Electronic contribution:      4.360052025       3.675979817       1.010641453
Nuclear contribution   :     -4.313563744      -3.202709651      -1.341084039
                        -----------------------------------------
Total Dipole Moment    :      0.046488281       0.473270166      -0.330442586
                        -----------------------------------------
Magnitude (a.u.)       :      0.579083857
Magnitude (Debye)      :      1.471914189

Rotational constants in cm-1:             0.022031             0.004946             0.004401
Rotational constants in MHz :           660.459719           148.275698           131.941234

                             ****ORCA TERMINATED NORMALLY****
TOTAL RUN TIME: 0 days 1 hours 6 minutes 51 seconds 97 msec
