                         Program Version 6.0.0  -   RELEASE   -
|  1> # ORCA input file
|  2> #
|  3> !TPSS def2-TZVP Opt CPCM(WATER)
|  4> * xyz 0 1
|  5>    O        3.20532         0.77222        -3.48165
|  6>    C        3.01992        -0.42363        -2.87260
|  7>    O        2.60439        -1.40765        -3.47515
|  8>    C        3.32048        -0.40706        -1.39156
|  9>    C        4.77373        -0.12881        -1.08244
| 10>    C        5.66943        -1.21342        -1.10651
| 11>    C        7.03233        -1.02123        -0.89021
| 12>    C        7.51453         0.25274        -0.62393
| 13>    C        6.63498         1.33431        -0.58478
| 14>    C        5.26576         1.17391        -0.86041
| 15>    N        4.37299         2.29124        -0.86707
| 16>    C        4.78516         3.66554        -0.98266
| 17>    C        5.63181         4.12934        -2.01264
| 18>   Cl        6.08405         3.13842        -3.35906
| 19>    C        6.11423         5.44479        -2.01214
| 20>    C        5.70652         6.34622        -1.03224
| 21>    C        4.79176         5.94154        -0.06385
| 22>    C        4.33591         4.61788        -0.04136
| 23>   Cl        3.21047         4.17011         1.19560
| 24>    H        3.58943         1.44889        -2.88309
| 25>    H        3.04405        -1.38942        -0.98093
| 26>    H        2.64728         0.30494        -0.90399
| 27>    H        5.30989        -2.22054        -1.31624
| 28>    H        7.71565        -1.86518        -0.93248
| 29>    H        8.57673         0.41196        -0.45771
| 30>    H        7.04962         2.31347        -0.36106
| 31>    H        3.79458         2.21395        -0.02113
| 32>    H        6.80603         5.77305        -2.78574
| 33>    H        6.08452         7.36622        -1.03898
| 34>    H        4.44479         6.65940         0.67650
| 35> *
| 36>
| 37>                          ****END OF INPUT****
 Total Charge           Charge          ....    0
 Multiplicity           Mult            ....    1
 Number of Electrons    NEL             ....  152
FINAL SINGLE POINT ENERGY     -1666.210777177622
FINAL SINGLE POINT ENERGY     -1666.217216279750
FINAL SINGLE POINT ENERGY     -1666.219619033612
FINAL SINGLE POINT ENERGY     -1666.220896417540
FINAL SINGLE POINT ENERGY     -1666.221988251624
FINAL SINGLE POINT ENERGY     -1666.222268039313
FINAL SINGLE POINT ENERGY     -1666.222469003933
FINAL SINGLE POINT ENERGY     -1666.222488553342
FINAL SINGLE POINT ENERGY     -1666.222596382726
FINAL SINGLE POINT ENERGY     -1666.222618177080
FINAL SINGLE POINT ENERGY     -1666.222626081377
FINAL SINGLE POINT ENERGY     -1666.222630142325
                    ***********************HURRAY********************

CARTESIAN COORDINATES (ANGSTROEM)
---------------------------------
  O      3.159831    1.103656   -3.320533
  C      2.954889   -0.148776   -2.871833
  O      2.458994   -0.985187   -3.606620
  C      3.354641   -0.432936   -1.422230
  C      4.815629   -0.157935   -1.106149
  C      5.701198   -1.233022   -0.973145
  C      7.052553   -1.033313   -0.686278
  C      7.533323    0.264475   -0.514585
  C      6.666221    1.351777   -0.627916
  C      5.318612    1.146635   -0.929012
  N      4.393114    2.245101   -1.083956
  C      4.846999    3.587192   -1.068729
  C      5.628801    4.128465   -2.106640
  Cl     6.087905    3.117416   -3.454237
  C      6.031643    5.461311   -2.111543
  C      5.629802    6.306093   -1.078447
  C      4.831581    5.819375   -0.045522
  C      4.461421    4.477685   -0.048078
  Cl     3.467822    3.878068    1.263762
  H      3.579694    1.662943   -2.599795
  H      3.135024   -1.484686   -1.234047
  H      2.690765    0.161501   -0.779810
  H      5.316948   -2.242430   -1.098824
  H      7.720059   -1.885116   -0.593917
  H      8.580282    0.437912   -0.282156
  H      7.037072    2.361156   -0.476571
  H      3.604058    2.141836   -0.441166
  H      6.639176    5.830578   -2.930497
  H      5.933124    7.348196   -1.083148
  H      4.505156    6.465230    0.762111

 Multiplicity           Mult            ....    1
 Number of Electrons    NEL             ....  152
 Basis Dimension        Dim             ....  667

ORBITAL ENERGIES
----------------

  NO   OCC          E(Eh)            E(eV)
   0   2.0000    -101.010054     -2748.6233
   1   2.0000    -101.006064     -2748.5147
   2   2.0000     -18.920843      -514.8623
   3   2.0000     -18.874124      -513.5910
   4   2.0000     -14.149135      -385.0175
   5   2.0000     -10.115962      -275.2693
   6   2.0000     -10.064814      -273.8775
   7   2.0000     -10.064095      -273.8580
   8   2.0000     -10.059598      -273.7356
   9   2.0000     -10.041155      -273.2337
  10   2.0000     -10.011793      -272.4347
  11   2.0000     -10.011328      -272.4221
  12   2.0000     -10.009944      -272.3844
  13   2.0000     -10.009563      -272.3741
  14   2.0000     -10.006670      -272.2953
  15   2.0000      -9.996003      -272.0051
  16   2.0000      -9.995562      -271.9931
  17   2.0000      -9.994690      -271.9693
  18   2.0000      -9.990842      -271.8646
  19   2.0000      -9.260073      -251.9794
  20   2.0000      -9.256127      -251.8720
  21   2.0000      -7.039408      -191.5520
  22   2.0000      -7.035561      -191.4474
  23   2.0000      -7.029585      -191.2847
  24   2.0000      -7.029262      -191.2759
  25   2.0000      -7.025746      -191.1803
  26   2.0000      -7.025090      -191.1624
  27   2.0000      -1.026677       -27.9373
  28   2.0000      -0.948211       -25.8021
  29   2.0000      -0.910463       -24.7749
  30   2.0000      -0.841611       -22.9014
  31   2.0000      -0.823886       -22.4191
  32   2.0000      -0.798891       -21.7389
  33   2.0000      -0.775198       -21.0942
  34   2.0000      -0.736577       -20.0433
  35   2.0000      -0.709039       -19.2939
  36   2.0000      -0.686388       -18.6776
  37   2.0000      -0.681297       -18.5390
  38   2.0000      -0.659104       -17.9351
  39   2.0000      -0.588816       -16.0225
  40   2.0000      -0.575373       -15.6567
  41   2.0000      -0.565516       -15.3885
  42   2.0000      -0.554621       -15.0920
  43   2.0000      -0.544624       -14.8200
  44   2.0000      -0.500328       -13.6146
  45   2.0000      -0.496035       -13.4978
  46   2.0000      -0.475223       -12.9315
  47   2.0000      -0.460399       -12.5281
  48   2.0000      -0.449475       -12.2308
  49   2.0000      -0.440865       -11.9966
  50   2.0000      -0.427613       -11.6359
  51   2.0000      -0.418152       -11.3785
  52   2.0000      -0.412044       -11.2123
  53   2.0000      -0.406196       -11.0532
  54   2.0000      -0.404701       -11.0125
  55   2.0000      -0.402604       -10.9554
  56   2.0000      -0.381740       -10.3877
  57   2.0000      -0.371804       -10.1173
  58   2.0000      -0.364706        -9.9242
  59   2.0000      -0.357295        -9.7225
  60   2.0000      -0.354705        -9.6520
  61   2.0000      -0.345069        -9.3898
  62   2.0000      -0.339582        -9.2405
  63   2.0000      -0.337473        -9.1831
  64   2.0000      -0.319307        -8.6888
  65   2.0000      -0.316524        -8.6131
  66   2.0000      -0.299789        -8.1577
  67   2.0000      -0.297508        -8.0956
  68   2.0000      -0.296570        -8.0701
  69   2.0000      -0.288512        -7.8508
  70   2.0000      -0.281316        -7.6550
  71   2.0000      -0.253009        -6.8847
  72   2.0000      -0.241135        -6.5616
  73   2.0000      -0.231830        -6.3084
  74   2.0000      -0.227717        -6.1965
  75   2.0000      -0.205828        -5.6009
  76   0.0000      -0.060397        -1.6435
  77   0.0000      -0.058851        -1.6014
  78   0.0000      -0.047965        -1.3052
  79   0.0000      -0.038361        -1.0439
  80   0.0000      -0.030927        -0.8416

MULLIKEN ATOMIC CHARGES
-----------------------
   0 O :   -0.339365
   1 C :    0.233483
   2 O :   -0.372676
   3 C :   -0.189025
   4 C :   -0.070302
   5 C :   -0.165199
   6 C :   -0.158156
   7 C :   -0.117763
   8 C :   -0.216150
   9 C :    0.283603
  10 N :   -0.427940
  11 C :    0.260428
  12 C :    0.022600
  13 Cl:   -0.121645
  14 C :   -0.149597
  15 C :   -0.135050
  16 C :   -0.150430
  17 C :    0.046032
  18 Cl:   -0.134419
  19 H :    0.346009
  20 H :    0.136596
  21 H :    0.153117
  22 H :    0.129003
  23 H :    0.133461
  24 H :    0.135566
  25 H :    0.146809
  26 H :    0.274378
  27 H :    0.149154
  28 H :    0.147304
  29 H :    0.150174
Sum of atomic charges:   -0.0000000

LOEWDIN ATOMIC CHARGES
----------------------
   0 O :    0.096934
   1 C :   -0.501931
   2 O :    0.047907
   3 C :   -0.177934
   4 C :   -0.122299
   5 C :   -0.105438
   6 C :   -0.145042
   7 C :   -0.137414
   8 C :   -0.121804
   9 C :   -0.180266
  10 N :    0.133711
  11 C :   -0.222550
  12 C :   -0.394592
  13 Cl:    0.418337
  14 C :   -0.134679
  15 C :   -0.124146
  16 C :   -0.134592
  17 C :   -0.387644
  18 Cl:    0.395614
  19 H :    0.182197
  20 H :    0.161930
  21 H :    0.166450
  22 H :    0.155680
  23 H :    0.149666
  24 H :    0.151083
  25 H :    0.159060
  26 H :    0.197673
  27 H :    0.157869
  28 H :    0.158015
  29 H :    0.158204

  Mayer bond orders larger than 0.100000
B(  0-O ,  1-C ) :   1.2669 B(  0-O , 19-H ) :   0.7659 B(  1-C ,  2-O ) :   2.0545
B(  1-C ,  3-C ) :   1.0089 B(  3-C ,  4-C ) :   0.9895 B(  3-C , 20-H ) :   0.9298
B(  3-C , 21-H ) :   0.9073 B(  4-C ,  5-C ) :   1.4023 B(  4-C ,  9-C ) :   1.2752
B(  5-C ,  6-C ) :   1.3762 B(  5-C , 22-H ) :   0.9853 B(  6-C ,  7-C ) :   1.3758
B(  6-C , 23-H ) :   0.9875 B(  7-C ,  8-C ) :   1.3847 B(  7-C , 24-H ) :   0.9814
B(  8-C ,  9-C ) :   1.3859 B(  8-C , 25-H ) :   0.9650 B(  9-C , 10-N ) :   0.8380
B( 10-N , 11-C ) :   0.9331 B( 10-N , 19-H ) :   0.1523 B( 10-N , 26-H ) :   0.8813
B( 11-C , 12-C ) :   1.2698 B( 11-C , 17-C ) :   1.2825 B( 12-C , 13-Cl) :   1.0067
B( 12-C , 14-C ) :   1.3526 B( 14-C , 15-C ) :   1.3757 B( 14-C , 27-H ) :   0.9728
B( 15-C , 16-C ) :   1.3721 B( 15-C , 28-H ) :   0.9777 B( 16-C , 17-C ) :   1.3548
B( 16-C , 29-H ) :   0.9744 B( 17-C , 18-Cl) :   1.0112

FINAL SINGLE POINT ENERGY     -1666.222631065409

DIPOLE MOMENT
-------------

Method             : SCF
Type of density    : Electron Density
Multiplicity       :   1
Irrep              :   0
Energy             : -1666.2226310654089048 Eh
Relativity type    :
Basis              : AO
                                X                 Y                 Z
Electronic contribution:     -3.556863809       8.929806704      -0.647827889
Nuclear contribution   :      4.882430282      -6.882990375       3.145003432
                        -----------------------------------------
Total Dipole Moment    :      1.325566473       2.046816329       2.497175543
                        -----------------------------------------
Magnitude (a.u.)       :      3.490339418
Magnitude (Debye)      :      8.871737752

Rotational constants in cm-1:             0.014153             0.007506             0.007359
Rotational constants in MHz :           424.286204           225.020083           220.612057

                             ****ORCA TERMINATED NORMALLY****
TOTAL RUN TIME: 0 days 0 hours 25 minutes 2 seconds 119 msec
