                         Program Version 6.0.0  -   RELEASE   -
|  1> # ORCA input file
|  2> #
|  3> !TPSS STO-3G Opt CPCM(WATER)
|  4> * xyz 0 1
|  5>    C        2.95021        -0.38900         1.26274
|  6>    C        2.52045        -1.27848         0.09338
|  7>    C        0.99553        -1.40741         0.07675
|  8>    C        3.03305        -0.73504        -1.25720
|  9>    C        4.54216        -0.63179        -1.32375
| 10>    C        5.34421        -1.77303        -1.21037
| 11>    C        6.73846        -1.66838        -1.22843
| 12>    C        7.36134        -0.42186        -1.38715
| 13>    C        6.55228         0.71875        -1.50569
| 14>    C        5.15995         0.61450        -1.47446
| 15>    C        8.87998        -0.34092        -1.48484
| 16>    C        9.28189         0.24772        -2.84195
| 17>    C        9.61173         0.40524        -0.37163
| 18>    O        8.87745         0.76600         0.70549
| 19>    O       10.81195         0.64384        -0.41318
| 20>    H        2.59304        -0.80141         2.21203
| 21>    H        2.55000         0.62512         1.15790
| 22>    H        4.04024        -0.31777         1.33342
| 23>    H        2.93334        -2.27988         0.25826
| 24>    H        0.51345        -0.43617        -0.07745
| 25>    H        0.63424        -1.81602         1.02656
| 26>    H        0.66784        -2.08146        -0.72144
| 27>    H        2.58341         0.24756        -1.45114
| 28>    H        2.69896        -1.38702        -2.07513
| 29>    H        4.88886        -2.75489        -1.10326
| 30>    H        7.32748        -2.57887        -1.13792
| 31>    H        6.99599         1.70432        -1.63567
| 32>    H        4.56054         1.51848        -1.56984
| 33>    H        9.27510        -1.36482        -1.43749
| 34>    H        8.93076         1.27903        -2.95691
| 35>    H        8.86386        -0.34431        -3.66356
| 36>    H       10.37078         0.26519        -2.96132
| 37>    H        7.93807         0.51129         0.66734
| 38> *
| 39>
| 40>                          ****END OF INPUT****
 Total Charge           Charge          ....    0
 Multiplicity           Mult            ....    1
 Number of Electrons    NEL             ....  112
FINAL SINGLE POINT ENERGY      -648.722524859219
FINAL SINGLE POINT ENERGY      -648.746382415907
FINAL SINGLE POINT ENERGY      -648.749537862874
FINAL SINGLE POINT ENERGY      -648.750127052652
FINAL SINGLE POINT ENERGY      -648.750305577878
FINAL SINGLE POINT ENERGY      -648.750382097455
FINAL SINGLE POINT ENERGY      -648.750457292223
FINAL SINGLE POINT ENERGY      -648.750486754799
FINAL SINGLE POINT ENERGY      -648.750499328356
FINAL SINGLE POINT ENERGY      -648.750507270886
FINAL SINGLE POINT ENERGY      -648.750512293771
FINAL SINGLE POINT ENERGY      -648.750517278364
FINAL SINGLE POINT ENERGY      -648.750518749179
FINAL SINGLE POINT ENERGY      -648.750519475748
                    ***********************HURRAY********************

CARTESIAN COORDINATES (ANGSTROEM)
---------------------------------
  C      2.839837   -0.060811    1.243033
  C      2.501993   -1.193822    0.218678
  C      0.963076   -1.480836    0.197922
  C      2.999686   -0.831361   -1.236914
  C      4.536177   -0.698510   -1.340510
  C      5.366800   -1.851304   -1.316820
  C      6.770380   -1.736014   -1.402809
  C      7.394687   -0.462089   -1.514677
  C      6.561950    0.692561   -1.539918
  C      5.158651    0.573640   -1.452786
  C      8.936076   -0.354686   -1.614441
  C      9.426021    0.458166   -2.860980
  C      9.589951    0.274975   -0.280883
  O      8.768295    0.211486    0.887270
  O     10.747061    0.767886   -0.212975
  H      2.501854   -0.347691    2.255587
  H      2.334320    0.880580    0.960013
  H      3.928866    0.123357    1.276705
  H      3.025630   -2.120636    0.535777
  H      0.405948   -0.582352   -0.124910
  H      0.611773   -1.765679    1.206638
  H      0.731233   -2.305934   -0.500153
  H      2.526440    0.118607   -1.554087
  H      2.658251   -1.630687   -1.926254
  H      4.907325   -2.851108   -1.236743
  H      7.396811   -2.644342   -1.387913
  H      7.017764    1.693309   -1.626122
  H      4.533817    1.482483   -1.477987
  H      9.343410   -1.386992   -1.689892
  H      8.995905    1.475578   -2.862267
  H      9.129326   -0.054966   -3.793895
  H     10.528215    0.541722   -2.832378
  H      7.889072   -0.196021    0.508780

 Multiplicity           Mult            ....    1
 Number of Electrons    NEL             ....  112
 Basis Dimension        Dim             ....   93

ORBITAL ENERGIES
----------------

  NO   OCC          E(Eh)            E(eV)
   0   2.0000     -18.689311      -508.5620
   1   2.0000     -18.624534      -506.7993
   2   2.0000      -9.895951      -269.2825
   3   2.0000      -9.852264      -268.0937
   4   2.0000      -9.838361      -267.7154
   5   2.0000      -9.834852      -267.6199
   6   2.0000      -9.832029      -267.5431
   7   2.0000      -9.830448      -267.5001
   8   2.0000      -9.828934      -267.4589
   9   2.0000      -9.823136      -267.3011
  10   2.0000      -9.823060      -267.2991
  11   2.0000      -9.820783      -267.2371
  12   2.0000      -9.820575      -267.2314
  13   2.0000      -9.820388      -267.2263
  14   2.0000      -9.819565      -267.2040
  15   2.0000      -0.928261       -25.2593
  16   2.0000      -0.860458       -23.4142
  17   2.0000      -0.750068       -20.4104
  18   2.0000      -0.706369       -19.2213
  19   2.0000      -0.682254       -18.5651
  20   2.0000      -0.643554       -17.5120
  21   2.0000      -0.637195       -17.3390
  22   2.0000      -0.591999       -16.1091
  23   2.0000      -0.584214       -15.8973
  24   2.0000      -0.546459       -14.8699
  25   2.0000      -0.515064       -14.0156
  26   2.0000      -0.491702       -13.3799
  27   2.0000      -0.473959       -12.8971
  28   2.0000      -0.445136       -12.1128
  29   2.0000      -0.413376       -11.2485
  30   2.0000      -0.398905       -10.8548
  31   2.0000      -0.385189       -10.4815
  32   2.0000      -0.372592       -10.1387
  33   2.0000      -0.356702        -9.7064
  34   2.0000      -0.352697        -9.5974
  35   2.0000      -0.348220        -9.4756
  36   2.0000      -0.333815        -9.0836
  37   2.0000      -0.324400        -8.8274
  38   2.0000      -0.321837        -8.7576
  39   2.0000      -0.309052        -8.4097
  40   2.0000      -0.307339        -8.3631
  41   2.0000      -0.294593        -8.0163
  42   2.0000      -0.292499        -7.9593
  43   2.0000      -0.281978        -7.6730
  44   2.0000      -0.268267        -7.2999
  45   2.0000      -0.259993        -7.0748
  46   2.0000      -0.251344        -6.8394
  47   2.0000      -0.248606        -6.7649
  48   2.0000      -0.244996        -6.6667
  49   2.0000      -0.242115        -6.5883
  50   2.0000      -0.231658        -6.3037
  51   2.0000      -0.219436        -5.9712
  52   2.0000      -0.167895        -4.5687
  53   2.0000      -0.159716        -4.3461
  54   2.0000      -0.135170        -3.6782
  55   2.0000      -0.097863        -2.6630
  56   0.0000       0.048111         1.3092
  57   0.0000       0.057683         1.5696
  58   0.0000       0.075880         2.0648
  59   0.0000       0.190074         5.1722
  60   0.0000       0.246636         6.7113

MULLIKEN ATOMIC CHARGES
-----------------------
   0 C :   -0.201010
   1 C :   -0.035739
   2 C :   -0.199902
   3 C :   -0.124102
   4 C :   -0.003026
   5 C :   -0.082290
   6 C :   -0.080914
   7 C :   -0.031023
   8 C :   -0.083343
   9 C :   -0.081210
  10 C :   -0.070538
  11 C :   -0.197020
  12 C :    0.175005
  13 O :   -0.204990
  14 O :   -0.217361
  15 H :    0.066090
  16 H :    0.064918
  17 H :    0.066630
  18 H :    0.063538
  19 H :    0.065513
  20 H :    0.066693
  21 H :    0.066102
  22 H :    0.070723
  23 H :    0.073050
  24 H :    0.078885
  25 H :    0.080049
  26 H :    0.080814
  27 H :    0.078851
  28 H :    0.084449
  29 H :    0.073528
  30 H :    0.074469
  31 H :    0.076070
  32 H :    0.207091
Sum of atomic charges:   -0.0000000

LOEWDIN ATOMIC CHARGES
----------------------
   0 C :   -0.108655
   1 C :    0.007560
   2 C :   -0.107108
   3 C :   -0.058452
   4 C :    0.005409
   5 C :   -0.049714
   6 C :   -0.047823
   7 C :   -0.022554
   8 C :   -0.049545
   9 C :   -0.048896
  10 C :   -0.035555
  11 C :   -0.100863
  12 C :    0.105504
  13 O :   -0.125420
  14 O :   -0.169495
  15 H :    0.034078
  16 H :    0.032962
  17 H :    0.034490
  18 H :    0.027844
  19 H :    0.033357
  20 H :    0.034547
  21 H :    0.033941
  22 H :    0.036028
  23 H :    0.038468
  24 H :    0.042982
  25 H :    0.043830
  26 H :    0.044616
  27 H :    0.042903
  28 H :    0.046898
  29 H :    0.039853
  30 H :    0.040499
  31 H :    0.042013
  32 H :    0.156298

  Mayer bond orders larger than 0.100000
B(  0-C ,  1-C ) :   0.9902 B(  0-C , 15-H ) :   0.9774 B(  0-C , 16-H ) :   0.9781
B(  0-C , 17-H ) :   0.9761 B(  1-C ,  2-C ) :   0.9872 B(  1-C ,  3-C ) :   0.9593
B(  1-C , 18-H ) :   0.9592 B(  2-C , 19-H ) :   0.9781 B(  2-C , 20-H ) :   0.9770
B(  2-C , 21-H ) :   0.9774 B(  3-C ,  4-C ) :   0.9904 B(  3-C , 22-H ) :   0.9660
B(  3-C , 23-H ) :   0.9609 B(  4-C ,  5-C ) :   1.3946 B(  4-C ,  7-C ) :   0.1070
B(  4-C ,  9-C ) :   1.3945 B(  5-C ,  6-C ) :   1.4410 B(  5-C ,  8-C ) :   0.1098
B(  5-C , 24-H ) :   0.9584 B(  6-C ,  7-C ) :   1.3777 B(  6-C ,  9-C ) :   0.1067
B(  6-C , 25-H ) :   0.9577 B(  7-C ,  8-C ) :   1.3750 B(  7-C , 10-C ) :   0.9812
B(  8-C ,  9-C ) :   1.4412 B(  8-C , 26-H ) :   0.9573 B(  9-C , 27-H ) :   0.9583
B( 10-C , 11-C ) :   0.9784 B( 10-C , 12-C ) :   0.8588 B( 10-C , 28-H ) :   0.9477
B( 11-C , 29-H ) :   0.9761 B( 11-C , 30-H ) :   0.9758 B( 11-C , 31-H ) :   0.9732
B( 12-C , 13-O ) :   1.0842 B( 12-C , 14-O ) :   1.8896 B( 13-O , 14-O ) :   0.2537
B( 13-O , 32-H ) :   0.8867

FINAL SINGLE POINT ENERGY      -648.750519745908

DIPOLE MOMENT
-------------

Method             : SCF
Type of density    : Electron Density
Multiplicity       :   1
Irrep              :   0
Energy             :  -648.7505197459076953 Eh
Relativity type    :
Basis              : AO
                                X                 Y                 Z
Electronic contribution:     20.227445660       2.295114871      -0.093305726
Nuclear contribution   :    -21.580521849      -2.888480765      -0.374766514
                        -----------------------------------------
Total Dipole Moment    :     -1.353076189      -0.593365894      -0.468072241
                        -----------------------------------------
Magnitude (a.u.)       :      1.549835437
Magnitude (Debye)      :      3.939368613

Rotational constants in cm-1:             0.046367             0.008286             0.007777
Rotational constants in MHz :          1390.047537           248.419351           233.138547

                             ****ORCA TERMINATED NORMALLY****
TOTAL RUN TIME: 0 days 0 hours 3 minutes 39 seconds 188 msec
