                         Program Version 6.0.0  -   RELEASE   -
|  1> # ORCA input file
|  2> #
|  3> !TPSS STO-3G Opt CPCM(WATER)
|  4> * xyz 0 1
|  5>    H        2.19682        -0.91154         0.64044
|  6>    C        2.08274        -0.07230        -0.06151
|  7>    C        0.61781         0.37039        -0.01313
|  8>    C        2.95733         1.04661         0.51400
|  9>    O        4.28094         0.77780         0.52831
| 10>    O        2.52215         2.08691         0.98966
| 11>    C        2.46394        -0.56230        -1.45986
| 12>    C        2.32706        -1.92842        -1.78584
| 13>    C        2.67594        -2.40638        -3.06924
| 14>    C        3.08558        -1.51093        -4.05073
| 15>    C        3.20379        -0.15525        -3.74761
| 16>    C        2.90509         0.31130        -2.46255
| 17>    C        2.63455        -3.85377        -3.42227
| 18>    O        2.31712        -4.18658        -4.56116
| 19>    C        3.03282        -4.89946        -2.43983
| 20>    C        3.93140        -4.62386        -1.40002
| 21>    C        4.30356        -5.63104        -0.51010
| 22>    C        3.79973        -6.92143        -0.66808
| 23>    C        2.92349        -7.20672        -1.71455
| 24>    C        2.54088        -6.19946        -2.60247
| 25>    H        0.34865         0.71015         0.99629
| 26>    H       -0.06373        -0.44391        -0.27769
| 27>    H        0.43042         1.20885        -0.69604
| 28>    H        4.52517        -0.07595         0.12336
| 29>    H        1.94296        -2.62253        -1.04434
| 30>    H        3.32225        -1.86705        -5.05606
| 31>    H        3.53216         0.53830        -4.52112
| 32>    H        3.01182         1.37929        -2.26715
| 33>    H        4.36991        -3.63997        -1.27773
| 34>    H        4.99900        -5.41307         0.29648
| 35>    H        4.10396        -7.70787         0.01569
| 36>    H        2.54331        -8.21744        -1.84315
| 37>    H        1.86720        -6.43272        -3.42364
| 38> *
| 39>
| 40>                          ****END OF INPUT****
 Total Charge           Charge          ....    0
 Multiplicity           Mult            ....    1
 Number of Electrons    NEL             ....  134
FINAL SINGLE POINT ENERGY      -833.435644039641
FINAL SINGLE POINT ENERGY      -833.465824827797
FINAL SINGLE POINT ENERGY      -833.469564599254
FINAL SINGLE POINT ENERGY      -833.470361512150
FINAL SINGLE POINT ENERGY      -833.470590992888
FINAL SINGLE POINT ENERGY      -833.470856848211
FINAL SINGLE POINT ENERGY      -833.471035290001
FINAL SINGLE POINT ENERGY      -833.471142863651
FINAL SINGLE POINT ENERGY      -833.471212699768
FINAL SINGLE POINT ENERGY      -833.471239560669
FINAL SINGLE POINT ENERGY      -833.471308372017
FINAL SINGLE POINT ENERGY      -833.471313093733
FINAL SINGLE POINT ENERGY      -833.471271281334
FINAL SINGLE POINT ENERGY      -833.471317303825
FINAL SINGLE POINT ENERGY      -833.471307388040
FINAL SINGLE POINT ENERGY      -833.471320230235
FINAL SINGLE POINT ENERGY      -833.471321681179
FINAL SINGLE POINT ENERGY      -833.471323820286
FINAL SINGLE POINT ENERGY      -833.471326052254
                    ***********************HURRAY********************

CARTESIAN COORDINATES (ANGSTROEM)
---------------------------------
  H      1.626044   -1.049085    0.502235
  C      1.873809   -0.131749   -0.076066
  C      0.622557    0.810144   -0.068479
  C      3.080638    0.578284    0.723177
  O      4.394363    0.180814    0.319440
  O      2.934493    1.398838    1.667006
  C      2.300032   -0.574084   -1.498307
  C      2.401419   -1.956476   -1.812927
  C      2.781814   -2.390219   -3.112163
  C      3.045780   -1.415867   -4.114613
  C      2.961819   -0.039373   -3.811816
  C      2.592905    0.381039   -2.514348
  C      2.825580   -3.885852   -3.508433
  O      2.575040   -4.250969   -4.702219
  C      3.176565   -4.922596   -2.416445
  C      4.059075   -4.634255   -1.338440
  C      4.396244   -5.639105   -0.403907
  C      3.854039   -6.939622   -0.530326
  C      2.983656   -7.240576   -1.605791
  C      2.656414   -6.241574   -2.546773
  H      0.417254    1.135457    0.968088
  H     -0.261906    0.274473   -0.458822
  H      0.799467    1.705887   -0.690158
  H      4.197312   -0.450489   -0.482144
  H      2.161325   -2.703041   -1.037092
  H      3.320961   -1.752392   -5.129228
  H      3.181212    0.711248   -4.589921
  H      2.529312    1.458527   -2.286060
  H      4.496190   -3.626473   -1.242035
  H      5.085939   -5.407272    0.425181
  H      4.114561   -7.720112    0.204545
  H      2.564455   -8.255610   -1.709648
  H      1.987456   -6.468267   -3.395150

 Multiplicity           Mult            ....    1
 Number of Electrons    NEL             ....  134
 Basis Dimension        Dim             ....  109

ORBITAL ENERGIES
----------------

  NO   OCC          E(Eh)            E(eV)
   0   2.0000     -18.692665      -508.6533
   1   2.0000     -18.652237      -507.5532
   2   2.0000     -18.628215      -506.8995
   3   2.0000      -9.899092      -269.3680
   4   2.0000      -9.893421      -269.2137
   5   2.0000      -9.855773      -268.1892
   6   2.0000      -9.839779      -267.7540
   7   2.0000      -9.836341      -267.6604
   8   2.0000      -9.833948      -267.5953
   9   2.0000      -9.833535      -267.5841
  10   2.0000      -9.833023      -267.5702
  11   2.0000      -9.832688      -267.5611
  12   2.0000      -9.832476      -267.5553
  13   2.0000      -9.831894      -267.5394
  14   2.0000      -9.831114      -267.5182
  15   2.0000      -9.830851      -267.5111
  16   2.0000      -9.830111      -267.4909
  17   2.0000      -9.829286      -267.4685
  18   2.0000      -9.829060      -267.4623
  19   2.0000      -0.930633       -25.3238
  20   2.0000      -0.900162       -24.4947
  21   2.0000      -0.862980       -23.4829
  22   2.0000      -0.755753       -20.5651
  23   2.0000      -0.746883       -20.3237
  24   2.0000      -0.693201       -18.8630
  25   2.0000      -0.664951       -18.0942
  26   2.0000      -0.648454       -17.6453
  27   2.0000      -0.644293       -17.5321
  28   2.0000      -0.633426       -17.2364
  29   2.0000      -0.560753       -15.2589
  30   2.0000      -0.546283       -14.8651
  31   2.0000      -0.519997       -14.1498
  32   2.0000      -0.516735       -14.0611
  33   2.0000      -0.499689       -13.5972
  34   2.0000      -0.462577       -12.5874
  35   2.0000      -0.443153       -12.0588
  36   2.0000      -0.430969       -11.7273
  37   2.0000      -0.416786       -11.3413
  38   2.0000      -0.401620       -10.9286
  39   2.0000      -0.384424       -10.4607
  40   2.0000      -0.374838       -10.1999
  41   2.0000      -0.359782        -9.7902
  42   2.0000      -0.358168        -9.7462
  43   2.0000      -0.344376        -9.3709
  44   2.0000      -0.339966        -9.2509
  45   2.0000      -0.337032        -9.1711
  46   2.0000      -0.325986        -8.8705
  47   2.0000      -0.310918        -8.4605
  48   2.0000      -0.301917        -8.2156
  49   2.0000      -0.298591        -8.1251
  50   2.0000      -0.291614        -7.9352
  51   2.0000      -0.279475        -7.6049
  52   2.0000      -0.276780        -7.5316
  53   2.0000      -0.272546        -7.4163
  54   2.0000      -0.262338        -7.1386
  55   2.0000      -0.260788        -7.0964
  56   2.0000      -0.249784        -6.7970
  57   2.0000      -0.245868        -6.6904
  58   2.0000      -0.241950        -6.5838
  59   2.0000      -0.221718        -6.0332
  60   2.0000      -0.176509        -4.8031
  61   2.0000      -0.173294        -4.7156
  62   2.0000      -0.172293        -4.6883
  63   2.0000      -0.164327        -4.4716
  64   2.0000      -0.137576        -3.7436
  65   2.0000      -0.102454        -2.7879
  66   2.0000      -0.100513        -2.7351
  67   0.0000      -0.005260        -0.1431
  68   0.0000       0.043087         1.1725
  69   0.0000       0.046405         1.2627
  70   0.0000       0.052883         1.4390
  71   0.0000       0.073232         1.9927

MULLIKEN ATOMIC CHARGES
-----------------------
   0 H :    0.086546
   1 C :   -0.070051
   2 C :   -0.196919
   3 C :    0.177151
   4 O :   -0.202782
   5 O :   -0.214220
   6 C :   -0.023391
   7 C :   -0.075004
   8 C :   -0.024126
   9 C :   -0.071117
  10 C :   -0.075788
  11 C :   -0.074506
  12 C :    0.129388
  13 O :   -0.174114
  14 C :   -0.025161
  15 C :   -0.074135
  16 C :   -0.076676
  17 C :   -0.072795
  18 C :   -0.077121
  19 C :   -0.072138
  20 H :    0.077349
  21 H :    0.075564
  22 H :    0.074490
  23 H :    0.208271
  24 H :    0.086850
  25 H :    0.086627
  26 H :    0.086708
  27 H :    0.086605
  28 H :    0.085686
  29 H :    0.084500
  30 H :    0.084938
  31 H :    0.084577
  32 H :    0.084792
Sum of atomic charges:    0.0000000

LOEWDIN ATOMIC CHARGES
----------------------
   0 H :    0.048532
   1 C :   -0.035015
   2 C :   -0.100602
   3 C :    0.107399
   4 O :   -0.122650
   5 O :   -0.166170
   6 C :   -0.014899
   7 C :   -0.042537
   8 C :   -0.027847
   9 C :   -0.035066
  10 C :   -0.039351
  11 C :   -0.039421
  12 C :    0.095873
  13 O :   -0.124638
  14 C :   -0.029021
  15 C :   -0.038075
  16 C :   -0.040701
  17 C :   -0.034641
  18 C :   -0.040815
  19 C :   -0.036257
  20 H :    0.043075
  21 H :    0.041388
  22 H :    0.040605
  23 H :    0.156959
  24 H :    0.049466
  25 H :    0.048741
  26 H :    0.048983
  27 H :    0.049020
  28 H :    0.048432
  29 H :    0.047209
  30 H :    0.047471
  31 H :    0.047285
  32 H :    0.047268

  Mayer bond orders larger than 0.100000
B(  0-H ,  1-C ) :   0.9472 B(  1-C ,  2-C ) :   0.9787 B(  1-C ,  3-C ) :   0.8592
B(  1-C ,  6-C ) :   0.9795 B(  2-C , 20-H ) :   0.9729 B(  2-C , 21-H ) :   0.9758
B(  2-C , 22-H ) :   0.9760 B(  3-C ,  4-O ) :   1.0810 B(  3-C ,  5-O ) :   1.8926
B(  4-O ,  5-O ) :   0.2526 B(  4-O , 23-H ) :   0.8941 B(  6-C ,  7-C ) :   1.3935
B(  6-C ,  9-C ) :   0.1044 B(  6-C , 11-C ) :   1.3736 B(  7-C ,  8-C ) :   1.3816
B(  7-C , 10-C ) :   0.1042 B(  7-C , 24-H ) :   0.9527 B(  8-C ,  9-C ) :   1.3774
B(  8-C , 11-C ) :   0.1049 B(  8-C , 12-C ) :   0.9567 B(  9-C , 10-C ) :   1.4314
B(  9-C , 25-H ) :   0.9558 B( 10-C , 11-C ) :   1.4305 B( 10-C , 26-H ) :   0.9585
B( 11-C , 27-H ) :   0.9569 B( 12-C , 13-O ) :   1.9019 B( 12-C , 14-C ) :   0.9600
B( 14-C , 15-C ) :   1.3795 B( 14-C , 17-C ) :   0.1077 B( 14-C , 19-C ) :   1.3760
B( 15-C , 16-C ) :   1.4341 B( 15-C , 18-C ) :   0.1096 B( 15-C , 28-H ) :   0.9556
B( 16-C , 17-C ) :   1.4231 B( 16-C , 19-C ) :   0.1107 B( 16-C , 29-H ) :   0.9592
B( 17-C , 18-C ) :   1.4162 B( 17-C , 30-H ) :   0.9597 B( 18-C , 19-C ) :   1.4424
B( 18-C , 31-H ) :   0.9591 B( 19-C , 32-H ) :   0.9561

FINAL SINGLE POINT ENERGY      -833.471326815404

DIPOLE MOMENT
-------------

Method             : SCF
Type of density    : Electron Density
Multiplicity       :   1
Irrep              :   0
Energy             :  -833.4713268154039270 Eh
Relativity type    :
Basis              : AO
                                X                 Y                 Z
Electronic contribution:      4.242668200      -1.840014920      -3.487221100
Nuclear contribution   :     -4.370896890       1.235548958       3.275170772
                        -----------------------------------------
Total Dipole Moment    :     -0.128228690      -0.604465962      -0.212050328
                        -----------------------------------------
Magnitude (a.u.)       :      0.653289398
Magnitude (Debye)      :      1.660529686

Rotational constants in cm-1:             0.019181             0.007109             0.005782
Rotational constants in MHz :           575.029572           213.113021           173.326518

                             ****ORCA TERMINATED NORMALLY****
TOTAL RUN TIME: 0 days 0 hours 7 minutes 2 seconds 369 msec
