                         Program Version 6.0.0  -   RELEASE   -
|  1> # ORCA input file
|  2> #
|  3> !B3LYP 6-311+G** Opt CPCM(WATER)
|  4> * xyz 0 1
|  5>    H        1.09662        -0.20425         0.32676
|  6>    C        2.13797        -0.11108        -0.01052
|  7>    C        2.12649         0.62804        -1.35353
|  8>    C        2.82666         0.75101         1.05036
|  9>    O        3.42837         0.07530         2.05584
| 10>    O        2.79236         1.97380         1.05318
| 11>    C        2.71761        -1.51246        -0.17817
| 12>    C        1.93400        -2.64563         0.11349
| 13>    C        2.46764        -3.93628        -0.02637
| 14>    C        3.77114        -4.09904        -0.50532
| 15>    C        4.55448        -2.98406        -0.79480
| 16>    C        4.03583        -1.70072        -0.62371
| 17>    C        1.68733        -5.16375         0.28429
| 18>    O        1.87299        -6.17087        -0.39524
| 19>    C        0.70964        -5.21669         1.40278
| 20>    C        0.85415        -4.43205         2.55380
| 21>    C       -0.08941        -4.51477         3.57938
| 22>    C       -1.16344        -5.39791         3.47203
| 23>    C       -1.29213        -6.20776         2.34434
| 24>    C       -0.35568        -6.12155         1.31302
| 25>    H        1.60784         1.58944        -1.26613
| 26>    H        1.61662         0.04215        -2.12585
| 27>    H        3.14163         0.84360        -1.70681
| 28>    H        3.41398        -0.89696         1.96534
| 29>    H        0.90004        -2.51911         0.43007
| 30>    H        4.17798        -5.09810        -0.65507
| 31>    H        5.56968        -3.11822        -1.16231
| 32>    H        4.67199        -0.84709        -0.85704
| 33>    H        1.70284        -3.76706         2.68065
| 34>    H        0.01844        -3.89919         4.46945
| 35>    H       -1.89326        -5.46596         4.27487
| 36>    H       -2.11824        -6.91083         2.26952
| 37>    H       -0.45599        -6.76552         0.44094
| 38> *
| 39>
| 40>                          ****END OF INPUT****
 Total Charge           Charge          ....    0
 Multiplicity           Mult            ....    1
 Number of Electrons    NEL             ....  134
FINAL SINGLE POINT ENERGY      -843.582810810045
FINAL SINGLE POINT ENERGY      -843.585567393747
FINAL SINGLE POINT ENERGY      -843.585677660433
FINAL SINGLE POINT ENERGY      -843.586157598384
FINAL SINGLE POINT ENERGY      -843.586296128492
FINAL SINGLE POINT ENERGY      -843.586418318530
FINAL SINGLE POINT ENERGY      -843.586545239707
FINAL SINGLE POINT ENERGY      -843.586742751959
FINAL SINGLE POINT ENERGY      -843.586847123836
FINAL SINGLE POINT ENERGY      -843.586926051813
FINAL SINGLE POINT ENERGY      -843.586984167340
FINAL SINGLE POINT ENERGY      -843.586987330488
FINAL SINGLE POINT ENERGY      -843.586988635070
FINAL SINGLE POINT ENERGY      -843.586989649364
FINAL SINGLE POINT ENERGY      -843.586983015649
FINAL SINGLE POINT ENERGY      -843.586990507683
FINAL SINGLE POINT ENERGY      -843.586991112861
FINAL SINGLE POINT ENERGY      -843.586957922541
FINAL SINGLE POINT ENERGY      -843.586991641397
                    ***********************HURRAY********************

CARTESIAN COORDINATES (ANGSTROEM)
---------------------------------
  H      1.209164   -0.270354    0.532370
  C      2.169872   -0.150242    0.020213
  C      1.926095    0.537104   -1.330482
  C      3.041940    0.709783    0.937541
  O      3.050516    0.370690    2.245323
  O      3.715275    1.646279    0.574752
  C      2.782703   -1.542171   -0.135975
  C      2.036952   -2.677604    0.190142
  C      2.560824   -3.964050   -0.000244
  C      3.855883   -4.109485   -0.515722
  C      4.614700   -2.983202   -0.817240
  C      4.080661   -1.707312   -0.634671
  C      1.747962   -5.194337    0.261099
  O      1.911998   -6.193229   -0.434274
  C      0.738360   -5.206760    1.364420
  C      0.929539   -4.491244    2.555701
  C     -0.000990   -4.588051    3.589383
  C     -1.139627   -5.379140    3.434230
  C     -1.340066   -6.090583    2.247876
  C     -0.400584   -6.015641    1.224817
  H      1.452745    1.511139   -1.187519
  H      1.265921   -0.083469   -1.940326
  H      2.861726    0.684778   -1.873291
  H      2.462841   -0.378517    2.426116
  H      1.028248   -2.555713    0.567669
  H      4.261122   -5.103030   -0.666149
  H      5.623414   -3.095235   -1.198759
  H      4.680506   -0.838482   -0.885467
  H      1.814561   -3.880720    2.688450
  H      0.163017   -4.045150    4.513519
  H     -1.868372   -5.443671    4.234926
  H     -2.226070   -6.703507    2.124559
  H     -0.544664   -6.572443    0.306255

 Multiplicity           Mult            ....    1
 Number of Electrons    NEL             ....  134
 Basis Dimension        Dim             ....  502

ORBITAL ENERGIES
----------------

  NO   OCC          E(Eh)            E(eV)
   0   2.0000     -19.177746      -521.8530
   1   2.0000     -19.125062      -520.4194
   2   2.0000     -19.122432      -520.3478
   3   2.0000     -10.317522      -280.7540
   4   2.0000     -10.275131      -279.6005
   5   2.0000     -10.204211      -277.6707
   6   2.0000     -10.200544      -277.5709
   7   2.0000     -10.195954      -277.4460
   8   2.0000     -10.194119      -277.3961
   9   2.0000     -10.190425      -277.2956
  10   2.0000     -10.188216      -277.2355
  11   2.0000     -10.188014      -277.2300
  12   2.0000     -10.187287      -277.2102
  13   2.0000     -10.186225      -277.1813
  14   2.0000     -10.185523      -277.1622
  15   2.0000     -10.184650      -277.1384
  16   2.0000     -10.182352      -277.0759
  17   2.0000     -10.182226      -277.0725
  18   2.0000     -10.164050      -276.5779
  19   2.0000      -1.117197       -30.4005
  20   2.0000      -1.054038       -28.6818
  21   2.0000      -1.035258       -28.1708
  22   2.0000      -0.879968       -23.9452
  23   2.0000      -0.869217       -23.6526
  24   2.0000      -0.815485       -22.1905
  25   2.0000      -0.783405       -21.3175
  26   2.0000      -0.760449       -20.6929
  27   2.0000      -0.756381       -20.5822
  28   2.0000      -0.743062       -20.2197
  29   2.0000      -0.668571       -18.1927
  30   2.0000      -0.663466       -18.0538
  31   2.0000      -0.626481       -17.0474
  32   2.0000      -0.626050       -17.0357
  33   2.0000      -0.616298       -16.7703
  34   2.0000      -0.602048       -16.3826
  35   2.0000      -0.566484       -15.4148
  36   2.0000      -0.540316       -14.7027
  37   2.0000      -0.515456       -14.0263
  38   2.0000      -0.509160       -13.8549
  39   2.0000      -0.487084       -13.2542
  40   2.0000      -0.478918       -13.0320
  41   2.0000      -0.473797       -12.8927
  42   2.0000      -0.470350       -12.7989
  43   2.0000      -0.461425       -12.5560
  44   2.0000      -0.450050       -12.2465
  45   2.0000      -0.441085       -12.0025
  46   2.0000      -0.439585       -11.9617
  47   2.0000      -0.431869       -11.7518
  48   2.0000      -0.426675       -11.6104
  49   2.0000      -0.426530       -11.6065
  50   2.0000      -0.408327       -11.1112
  51   2.0000      -0.400599       -10.9008
  52   2.0000      -0.381443       -10.3796
  53   2.0000      -0.375294       -10.2123
  54   2.0000      -0.372560       -10.1379
  55   2.0000      -0.366967        -9.9857
  56   2.0000      -0.365188        -9.9373
  57   2.0000      -0.359907        -9.7936
  58   2.0000      -0.351976        -9.5778
  59   2.0000      -0.346520        -9.4293
  60   2.0000      -0.337275        -9.1777
  61   2.0000      -0.298982        -8.1357
  62   2.0000      -0.277971        -7.5640
  63   2.0000      -0.271653        -7.3921
  64   2.0000      -0.267254        -7.2723
  65   2.0000      -0.265310        -7.2195
  66   2.0000      -0.259615        -7.0645
  67   0.0000      -0.080526        -2.1912
  68   0.0000      -0.035009        -0.9526
  69   0.0000      -0.031383        -0.8540
  70   0.0000      -0.020896        -0.5686
  71   0.0000      -0.005838        -0.1589

MULLIKEN ATOMIC CHARGES
-----------------------
   0 H :    0.191571
   1 C :    0.047445
   2 C :   -0.685833
   3 C :   -0.118099
   4 O :   -0.200386
   5 O :   -0.332500
   6 C :    1.267257
   7 C :   -2.291081
   8 C :    1.437609
   9 C :    0.291413
  10 C :   -0.422163
  11 C :   -0.082894
  12 C :   -1.098645
  13 O :   -0.290263
  14 C :    1.444322
  15 C :   -0.896055
  16 C :   -0.306425
  17 C :   -0.166923
  18 C :   -0.194757
  19 C :    0.084384
  20 H :    0.163725
  21 H :    0.159740
  22 H :    0.182828
  23 H :    0.315518
  24 H :    0.176181
  25 H :    0.162658
  26 H :    0.166494
  27 H :    0.168255
  28 H :    0.176199
  29 H :    0.162391
  30 H :    0.165603
  31 H :    0.163942
  32 H :    0.158488
Sum of atomic charges:    0.0000000

LOEWDIN ATOMIC CHARGES
----------------------
   0 H :    0.108053
   1 C :   -0.112554
   2 C :   -0.079616
   3 C :    0.001806
   4 O :   -0.054102
   5 O :   -0.216775
   6 C :   -0.100584
   7 C :   -0.028760
   8 C :   -0.102730
   9 C :   -0.017623
  10 C :   -0.044049
  11 C :   -0.032293
  12 C :    0.030460
  13 O :   -0.226424
  14 C :   -0.114022
  15 C :   -0.037386
  16 C :   -0.060414
  17 C :   -0.044842
  18 C :   -0.060154
  19 C :   -0.024420
  20 H :    0.071466
  21 H :    0.074644
  22 H :    0.078473
  23 H :    0.152208
  24 H :    0.108270
  25 H :    0.097148
  26 H :    0.085937
  27 H :    0.100806
  28 H :    0.099106
  29 H :    0.084336
  30 H :    0.083951
  31 H :    0.083871
  32 H :    0.096211

  Mayer bond orders larger than 0.100000
B(  0-H ,  1-C ) :   1.0820 B(  0-H ,  6-C ) :  -0.4595 B(  0-H ,  7-C ) :   0.3553
B(  1-C ,  2-C ) :   0.9214 B(  1-C ,  3-C ) :   0.8445 B(  1-C ,  4-O ) :  -0.2559
B(  1-C ,  7-C ) :   0.4470 B(  2-C ,  6-C ) :  -0.4341 B(  2-C ,  7-C ) :   0.2600
B(  2-C , 11-C ) :   0.2234 B(  2-C , 20-H ) :   0.9787 B(  2-C , 21-H ) :   1.0018
B(  2-C , 22-H ) :   0.9697 B(  3-C ,  4-O ) :   1.3549 B(  3-C ,  5-O ) :   2.0666
B(  3-C ,  6-C ) :  -0.2651 B(  3-C , 11-C ) :   0.2217 B(  4-O ,  6-C ) :   0.6378
B(  4-O ,  7-C ) :  -0.3560 B(  4-O , 11-C ) :  -0.1587 B(  4-O , 23-H ) :   0.8616
B(  5-O ,  7-C ) :   0.1529 B(  5-O , 11-C ) :  -0.2464 B(  6-C ,  7-C ) :   0.7783
B(  6-C ,  8-C ) :   0.3606 B(  6-C , 10-C ) :   0.2422 B(  6-C , 11-C ) :   1.4928
B(  6-C , 12-C ) :  -0.1652 B(  6-C , 14-C ) :   0.4118 B(  6-C , 16-C ) :   0.3199
B(  6-C , 18-C ) :   0.1454 B(  6-C , 19-C ) :  -0.8618 B(  6-C , 21-H ) :  -0.1144
B(  6-C , 23-H ) :   0.1126 B(  7-C ,  8-C ) :   0.4913 B(  7-C ,  9-C ) :   0.3086
B(  7-C , 11-C ) :   0.4130 B(  7-C , 12-C ) :   1.8770 B(  7-C , 14-C ) :  -0.4183
B(  7-C , 15-C ) :   1.6574 B(  7-C , 17-C ) :   0.1687 B(  7-C , 18-C ) :  -0.3347
B(  7-C , 19-C ) :  -0.2260 B(  7-C , 24-H ) :   0.8405 B(  8-C ,  9-C ) :   1.6804
B(  8-C , 11-C ) :   0.1477 B(  8-C , 12-C ) :  -0.3582 B(  8-C , 14-C ) :   0.4305
B(  8-C , 15-C ) :  -0.5124 B(  8-C , 16-C ) :   0.2373 B(  8-C , 17-C ) :  -0.1460
B(  8-C , 18-C ) :   0.1663 B(  8-C , 19-C ) :  -0.6175 B(  9-C , 10-C ) :   1.1170
B(  9-C , 11-C ) :  -0.4471 B(  9-C , 12-C ) :  -0.5945 B(  9-C , 14-C ) :  -0.7485
B(  9-C , 15-C ) :  -0.5701 B(  9-C , 16-C ) :  -0.5374 B(  9-C , 17-C ) :   0.1126
B(  9-C , 19-C ) :   1.4740 B(  9-C , 25-H ) :   0.8839 B( 10-C , 11-C ) :   1.1842
B( 10-C , 14-C ) :   0.1971 B( 10-C , 15-C ) :  -0.1375 B( 10-C , 16-C ) :   0.1376
B( 10-C , 19-C ) :  -0.2254 B( 10-C , 26-H ) :   1.0156 B( 11-C , 14-C ) :  -0.1415
B( 11-C , 19-C ) :   0.1061 B( 11-C , 27-H ) :   0.8511 B( 12-C , 13-O ) :   1.8506
B( 12-C , 14-C ) :  -0.1172 B( 12-C , 15-C ) :   1.3080 B( 12-C , 16-C ) :   0.1325
B( 12-C , 18-C ) :  -0.1463 B( 12-C , 32-H ) :   0.1482 B( 14-C , 15-C ) :   1.0955
B( 14-C , 16-C ) :  -0.1143 B( 14-C , 19-C ) :   1.5917 B( 15-C , 16-C ) :   1.3833
B( 15-C , 28-H ) :   0.9527 B( 16-C , 17-C ) :   1.4157 B( 16-C , 29-H ) :   0.9916
B( 17-C , 18-C ) :   1.4542 B( 17-C , 19-C ) :   0.1382 B( 17-C , 30-H ) :   0.9507
B( 18-C , 19-C ) :   1.3339 B( 18-C , 31-H ) :   1.0067 B( 19-C , 31-H ) :  -0.1064
B( 19-C , 32-H ) :   0.9245

FINAL SINGLE POINT ENERGY      -843.586991627450

DIPOLE MOMENT
-------------

Method             : SCF
Type of density    : Electron Density
Multiplicity       :   1
Irrep              :   0
Energy             :  -843.5869916274499474 Eh
Relativity type    :
Basis              : AO
                                X                 Y                 Z
Electronic contribution:      2.843464421      -3.977155690       2.117953901
Nuclear contribution   :     -4.596878949       3.722077553      -1.113864661
                        -----------------------------------------
Total Dipole Moment    :     -1.753414528      -0.255078137       1.004089240
                        -----------------------------------------
Magnitude (a.u.)       :      2.036595828
Magnitude (Debye)      :      5.176615202

Rotational constants in cm-1:             0.020872             0.007117             0.005927
Rotational constants in MHz :           625.732638           213.367991           177.676750

                             ****ORCA TERMINATED NORMALLY****
TOTAL RUN TIME: 0 days 2 hours 29 minutes 59 seconds 538 msec
