                         Program Version 6.0.0  -   RELEASE   -
|  1> # ORCA input file
|  2> #
|  3> !PBE def2-TZVP Opt CPCM(WATER)
|  4> * xyz 0 1
|  5>    C        2.95021        -0.38900         1.26274
|  6>    C        2.52045        -1.27848         0.09338
|  7>    C        0.99553        -1.40741         0.07675
|  8>    C        3.03305        -0.73504        -1.25720
|  9>    C        4.54216        -0.63179        -1.32375
| 10>    C        5.34421        -1.77303        -1.21037
| 11>    C        6.73846        -1.66838        -1.22843
| 12>    C        7.36134        -0.42186        -1.38715
| 13>    C        6.55228         0.71875        -1.50569
| 14>    C        5.15995         0.61450        -1.47446
| 15>    C        8.87998        -0.34092        -1.48484
| 16>    C        9.28189         0.24772        -2.84195
| 17>    C        9.61173         0.40524        -0.37163
| 18>    O        8.87745         0.76600         0.70549
| 19>    O       10.81195         0.64384        -0.41318
| 20>    H        2.59304        -0.80141         2.21203
| 21>    H        2.55000         0.62512         1.15790
| 22>    H        4.04024        -0.31777         1.33342
| 23>    H        2.93334        -2.27988         0.25826
| 24>    H        0.51345        -0.43617        -0.07745
| 25>    H        0.63424        -1.81602         1.02656
| 26>    H        0.66784        -2.08146        -0.72144
| 27>    H        2.58341         0.24756        -1.45114
| 28>    H        2.69896        -1.38702        -2.07513
| 29>    H        4.88886        -2.75489        -1.10326
| 30>    H        7.32748        -2.57887        -1.13792
| 31>    H        6.99599         1.70432        -1.63567
| 32>    H        4.56054         1.51848        -1.56984
| 33>    H        9.27510        -1.36482        -1.43749
| 34>    H        8.93076         1.27903        -2.95691
| 35>    H        8.86386        -0.34431        -3.66356
| 36>    H       10.37078         0.26519        -2.96132
| 37>    H        7.93807         0.51129         0.66734
| 38> *
| 39>
| 40>                          ****END OF INPUT****
 Total Charge           Charge          ....    0
 Multiplicity           Mult            ....    1
 Number of Electrons    NEL             ....  112
FINAL SINGLE POINT ENERGY      -656.120268938544
FINAL SINGLE POINT ENERGY      -656.122729322457
FINAL SINGLE POINT ENERGY      -656.123281826907
FINAL SINGLE POINT ENERGY      -656.123428707009
FINAL SINGLE POINT ENERGY      -656.123701481216
FINAL SINGLE POINT ENERGY      -656.123763379475
FINAL SINGLE POINT ENERGY      -656.123807377701
FINAL SINGLE POINT ENERGY      -656.123866172557
FINAL SINGLE POINT ENERGY      -656.123894051419
FINAL SINGLE POINT ENERGY      -656.123978061407
FINAL SINGLE POINT ENERGY      -656.124033731759
FINAL SINGLE POINT ENERGY      -656.124114526797
FINAL SINGLE POINT ENERGY      -656.124140981336
FINAL SINGLE POINT ENERGY      -656.124163149351
FINAL SINGLE POINT ENERGY      -656.124172111527
FINAL SINGLE POINT ENERGY      -656.124180493814
FINAL SINGLE POINT ENERGY      -656.124182534682
FINAL SINGLE POINT ENERGY      -656.124183921998
                    ***********************HURRAY********************

CARTESIAN COORDINATES (ANGSTROEM)
---------------------------------
  C      2.835408   -0.167164    1.254423
  C      2.516504   -1.198704    0.168563
  C      1.011239   -1.472997    0.097448
  C      3.042569   -0.759089   -1.218428
  C      4.543663   -0.633094   -1.307345
  C      5.360647   -1.774470   -1.300352
  C      6.751511   -1.668030   -1.366888
  C      7.375118   -0.413962   -1.449918
  C      6.562119    0.730614   -1.460065
  C      5.172640    0.619691   -1.388232
  C      8.888834   -0.302129   -1.551390
  C      9.361361    0.261779   -2.895613
  C      9.493298    0.470830   -0.375479
  O      8.991412    0.177677    0.850598
  O     10.399017    1.279208   -0.462963
  H      2.474977   -0.508847    2.236338
  H      2.344525    0.794299    1.030999
  H      3.916487    0.018475    1.336475
  H      3.025981   -2.143798    0.429528
  H      0.462454   -0.558423   -0.180749
  H      0.625117   -1.812765    1.070248
  H      0.779606   -2.245770   -0.651182
  H      2.575409    0.204629   -1.482014
  H      2.699018   -1.497125   -1.962808
  H      4.901048   -2.764924   -1.246740
  H      7.365657   -2.572404   -1.363666
  H      7.018685    1.721951   -1.524357
  H      4.559985    1.524834   -1.397371
  H      9.297900   -1.323482   -1.438805
  H      8.990642    1.285058   -3.047097
  H      8.985303   -0.367294   -3.713483
  H     10.457755    0.282125   -2.945189
  H      8.240711   -0.448192    0.759605

 Multiplicity           Mult            ....    1
 Number of Electrons    NEL             ....  112
 Basis Dimension        Dim             ....  573

ORBITAL ENERGIES
----------------

  NO   OCC          E(Eh)            E(eV)
   0   2.0000     -18.799591      -511.5629
   1   2.0000     -18.744619      -510.0670
   2   2.0000     -10.013196      -272.4729
   3   2.0000      -9.912985      -269.7460
   4   2.0000      -9.902715      -269.4666
   5   2.0000      -9.896397      -269.2947
   6   2.0000      -9.890529      -269.1350
   7   2.0000      -9.890133      -269.1242
   8   2.0000      -9.887156      -269.0432
   9   2.0000      -9.886777      -269.0329
  10   2.0000      -9.886098      -269.0144
  11   2.0000      -9.879131      -268.8248
  12   2.0000      -9.876632      -268.7568
  13   2.0000      -9.865086      -268.4426
  14   2.0000      -9.864101      -268.4158
  15   2.0000      -1.014462       -27.6049
  16   2.0000      -0.935933       -25.4680
  17   2.0000      -0.789847       -21.4928
  18   2.0000      -0.744596       -20.2615
  19   2.0000      -0.720447       -19.6044
  20   2.0000      -0.676713       -18.4143
  21   2.0000      -0.671796       -18.2805
  22   2.0000      -0.613177       -16.6854
  23   2.0000      -0.609623       -16.5887
  24   2.0000      -0.590143       -16.0586
  25   2.0000      -0.556258       -15.1365
  26   2.0000      -0.548446       -14.9240
  27   2.0000      -0.525869       -14.3096
  28   2.0000      -0.497026       -13.5248
  29   2.0000      -0.472987       -12.8706
  30   2.0000      -0.449828       -12.2404
  31   2.0000      -0.426776       -11.6132
  32   2.0000      -0.413148       -11.2423
  33   2.0000      -0.407245       -11.0817
  34   2.0000      -0.397777       -10.8241
  35   2.0000      -0.394983       -10.7480
  36   2.0000      -0.387468       -10.5435
  37   2.0000      -0.376241       -10.2380
  38   2.0000      -0.372938       -10.1482
  39   2.0000      -0.369254       -10.0479
  40   2.0000      -0.357766        -9.7353
  41   2.0000      -0.341812        -9.3012
  42   2.0000      -0.332836        -9.0569
  43   2.0000      -0.330142        -8.9836
  44   2.0000      -0.319802        -8.7023
  45   2.0000      -0.318035        -8.6542
  46   2.0000      -0.314031        -8.5452
  47   2.0000      -0.301904        -8.2152
  48   2.0000      -0.294109        -8.0031
  49   2.0000      -0.289208        -7.8697
  50   2.0000      -0.286610        -7.7991
  51   2.0000      -0.281188        -7.6515
  52   2.0000      -0.275906        -7.5078
  53   2.0000      -0.245085        -6.6691
  54   2.0000      -0.234388        -6.3780
  55   2.0000      -0.217532        -5.9194
  56   0.0000      -0.051605        -1.4043
  57   0.0000      -0.050146        -1.3646
  58   0.0000      -0.037247        -1.0135
  59   0.0000       0.012272         0.3339
  60   0.0000       0.024975         0.6796

MULLIKEN ATOMIC CHARGES
-----------------------
   0 C :   -0.402095
   1 C :   -0.023142
   2 C :   -0.378093
   3 C :   -0.208108
   4 C :    0.206430
   5 C :   -0.235900
   6 C :   -0.172847
   7 C :    0.010431
   8 C :   -0.196437
   9 C :   -0.221151
  10 C :    0.023421
  11 C :   -0.413977
  12 C :    0.203649
  13 O :   -0.318440
  14 O :   -0.333881
  15 H :    0.126781
  16 H :    0.113148
  17 H :    0.130663
  18 H :    0.080835
  19 H :    0.115717
  20 H :    0.126713
  21 H :    0.124935
  22 H :    0.116201
  23 H :    0.114173
  24 H :    0.128177
  25 H :    0.127845
  26 H :    0.134110
  27 H :    0.123753
  28 H :    0.130080
  29 H :    0.135527
  30 H :    0.136609
  31 H :    0.136023
  32 H :    0.358849
Sum of atomic charges:    0.0000000

LOEWDIN ATOMIC CHARGES
----------------------
   0 C :   -0.297564
   1 C :   -0.307067
   2 C :   -0.299204
   3 C :   -0.200090
   4 C :   -0.144280
   5 C :   -0.112436
   6 C :   -0.118639
   7 C :   -0.150109
   8 C :   -0.110248
   9 C :   -0.115550
  10 C :   -0.221080
  11 C :   -0.273208
  12 C :   -0.483189
  13 O :    0.113967
  14 O :    0.076818
  15 H :    0.125582
  16 H :    0.125830
  17 H :    0.125543
  18 H :    0.154543
  19 H :    0.125548
  20 H :    0.125443
  21 H :    0.124742
  22 H :    0.151251
  23 H :    0.154603
  24 H :    0.156588
  25 H :    0.157252
  26 H :    0.159140
  27 H :    0.155555
  28 H :    0.190560
  29 H :    0.131216
  30 H :    0.132864
  31 H :    0.130506
  32 H :    0.215113

  Mayer bond orders larger than 0.100000
B(  0-C ,  1-C ) :   0.9994 B(  0-C , 15-H ) :   0.9653 B(  0-C , 16-H ) :   0.9614
B(  0-C , 17-H ) :   0.9627 B(  1-C ,  2-C ) :   0.9746 B(  1-C ,  3-C ) :   0.9869
B(  1-C , 18-H ) :   0.9397 B(  2-C , 19-H ) :   0.9625 B(  2-C , 20-H ) :   0.9659
B(  2-C , 21-H ) :   0.9648 B(  3-C ,  4-C ) :   0.9245 B(  3-C , 22-H ) :   0.9540
B(  3-C , 23-H ) :   0.9334 B(  4-C ,  5-C ) :   1.3065 B(  4-C ,  9-C ) :   1.3144
B(  5-C ,  6-C ) :   1.4034 B(  5-C , 24-H ) :   0.9851 B(  6-C ,  7-C ) :   1.3347
B(  6-C , 25-H ) :   0.9774 B(  7-C ,  8-C ) :   1.3311 B(  7-C , 10-C ) :   0.9019
B(  8-C ,  9-C ) :   1.4117 B(  8-C , 26-H ) :   0.9814 B(  9-C , 27-H ) :   0.9813
B( 10-C , 11-C ) :   0.9811 B( 10-C , 12-C ) :   0.9636 B( 10-C , 28-H ) :   0.8937
B( 11-C , 29-H ) :   0.9639 B( 11-C , 30-H ) :   0.9604 B( 11-C , 31-H ) :   0.9563
B( 12-C , 13-O ) :   1.2552 B( 12-C , 14-O ) :   2.1050 B( 13-O , 32-H ) :   0.8340

FINAL SINGLE POINT ENERGY      -656.124184138224

DIPOLE MOMENT
-------------

Method             : SCF
Type of density    : Electron Density
Multiplicity       :   1
Irrep              :   0
Energy             :  -656.1241841382235407 Eh
Relativity type    :
Basis              : AO
                                X                 Y                 Z
Electronic contribution:     19.177651344       3.022556179      -0.574171480
Nuclear contribution   :    -21.071632404      -4.585218639       0.043883479
                        -----------------------------------------
Total Dipole Moment    :     -1.893981060      -1.562662460      -0.530288001
                        -----------------------------------------
Magnitude (a.u.)       :      2.512027783
Magnitude (Debye)      :      6.385067195

Rotational constants in cm-1:             0.048109             0.008481             0.007987
Rotational constants in MHz :          1442.259811           254.256811           239.439428

                             ****ORCA TERMINATED NORMALLY****
TOTAL RUN TIME: 0 days 0 hours 22 minutes 49 seconds 300 msec
