                         Program Version 6.0.0  -   RELEASE   -
|  1> # ORCA input file
|  2> #
|  3> !B3LYP def2-TZVP Opt CPCM(WATER)
|  4> * xyz 0 1
|  5>    O        2.14551        -0.60885         0.52181
|  6>    C        2.63420        -1.80737         0.13543
|  7>    O        2.17162        -2.83239         0.62109
|  8>    C        3.65654        -1.73250        -0.95851
|  9>    C        4.96102        -1.03926        -0.61508
| 10>    C        6.12539        -1.84007        -0.61083
| 11>    C        7.39004        -1.27991        -0.47544
| 12>    C        7.51670         0.09058        -0.30438
| 13>    C        6.37165         0.89145        -0.25876
| 14>    C        5.08221         0.35792        -0.43094
| 15>    N        3.94879         1.20390        -0.53378
| 16>    C        3.84026         2.58058        -0.86585
| 17>    C        4.60199         3.19619        -1.88448
| 18>   Cl        5.54000         2.29292        -3.03255
| 19>    C        4.53823         4.57834        -2.11797
| 20>    C        3.67875         5.38423        -1.37796
| 21>    C        2.87476         4.80277        -0.40530
| 22>    C        2.95948         3.42647        -0.14720
| 23>   Cl        1.91108         2.79105         1.07992
| 24>    H        1.46203        -0.84108         1.18918
| 25>    H        3.20949        -1.27698        -1.84977
| 26>    H        3.86501        -2.77055        -1.24335
| 27>    H        6.05372        -2.91564        -0.76619
| 28>    H        8.27654        -1.91040        -0.52459
| 29>    H        8.50112         0.54295        -0.23421
| 30>    H        6.50961         1.96135        -0.11755
| 31>    H        3.12683         0.82883        -0.05232
| 32>    H        5.14146         5.02526        -2.90632
| 33>    H        3.62186         6.44998        -1.58160
| 34>    H        2.17804         5.43109         0.14743
| 35> *
| 36>
| 37>                          ****END OF INPUT****
 Total Charge           Charge          ....    0
 Multiplicity           Mult            ....    1
 Number of Electrons    NEL             ....  152
FINAL SINGLE POINT ENERGY     -1665.509860343101
FINAL SINGLE POINT ENERGY     -1665.517314034155
FINAL SINGLE POINT ENERGY     -1665.520354562518
FINAL SINGLE POINT ENERGY     -1665.521909234514
FINAL SINGLE POINT ENERGY     -1665.522762146950
FINAL SINGLE POINT ENERGY     -1665.523027853342
FINAL SINGLE POINT ENERGY     -1665.523120571688
FINAL SINGLE POINT ENERGY     -1665.523139682018
FINAL SINGLE POINT ENERGY     -1665.523148356221
FINAL SINGLE POINT ENERGY     -1665.523151292578
FINAL SINGLE POINT ENERGY     -1665.523154217580
FINAL SINGLE POINT ENERGY     -1665.523160813236
FINAL SINGLE POINT ENERGY     -1665.523166707786
FINAL SINGLE POINT ENERGY     -1665.523178604067
FINAL SINGLE POINT ENERGY     -1665.523182725343
FINAL SINGLE POINT ENERGY     -1665.523184487736
FINAL SINGLE POINT ENERGY     -1665.523185575481
FINAL SINGLE POINT ENERGY     -1665.523185999892
                    ***********************HURRAY********************

CARTESIAN COORDINATES (ANGSTROEM)
---------------------------------
  O      2.171751   -0.930149    0.610591
  C      2.738604   -2.025114    0.067067
  O      2.562898   -3.135593    0.509420
  C      3.608125   -1.682688   -1.123547
  C      4.900638   -0.993690   -0.728777
  C      6.043174   -1.764306   -0.512465
  C      7.265996   -1.184647   -0.195529
  C      7.350868    0.199390   -0.086434
  C      6.223785    0.985621   -0.282837
  C      4.991654    0.406552   -0.602977
  N      3.836557    1.193860   -0.802392
  C      3.859669    2.578544   -0.984705
  C      4.462223    3.182411   -2.103585
  Cl     5.203074    2.185723   -3.332954
  C      4.457374    4.556154   -2.296118
  C      3.807713    5.378875   -1.385263
  C      3.167249    4.823779   -0.285896
  C      3.208170    3.450872   -0.093943
  Cl     2.410215    2.786038    1.315833
  H      1.650745   -1.189078    1.390496
  H      3.031618   -1.043310   -1.796102
  H      3.831691   -2.616846   -1.634057
  H      5.970050   -2.840849   -0.615779
  H      8.139893   -1.805149   -0.043176
  H      8.293404    0.672381    0.161176
  H      6.295052    2.060471   -0.177722
  H      3.028823    0.861831   -0.292080
  H      4.940978    4.971633   -3.169494
  H      3.791988    6.449810   -1.538124
  H      2.649949    5.448338    0.429303

 Multiplicity           Mult            ....    1
 Number of Electrons    NEL             ....  152
 Basis Dimension        Dim             ....  667

ORBITAL ENERGIES
----------------

  NO   OCC          E(Eh)            E(eV)
   0   2.0000    -101.535222     -2762.9139
   1   2.0000    -101.532103     -2762.8290
   2   2.0000     -19.181199      -521.9470
   3   2.0000     -19.126664      -520.4630
   4   2.0000     -14.340352      -390.2208
   5   2.0000     -10.315620      -280.7023
   6   2.0000     -10.244195      -278.7587
   7   2.0000     -10.243668      -278.7444
   8   2.0000     -10.239918      -278.6423
   9   2.0000     -10.221514      -278.1415
  10   2.0000     -10.190142      -277.2878
  11   2.0000     -10.189493      -277.2702
  12   2.0000     -10.189487      -277.2700
  13   2.0000     -10.189092      -277.2593
  14   2.0000     -10.185456      -277.1603
  15   2.0000     -10.174938      -276.8741
  16   2.0000     -10.174177      -276.8534
  17   2.0000     -10.172308      -276.8026
  18   2.0000     -10.168621      -276.7022
  19   2.0000      -9.467272      -257.6176
  20   2.0000      -9.464171      -257.5332
  21   2.0000      -7.228663      -196.7019
  22   2.0000      -7.225627      -196.6193
  23   2.0000      -7.220439      -196.4781
  24   2.0000      -7.220095      -196.4688
  25   2.0000      -7.217387      -196.3951
  26   2.0000      -7.216876      -196.3812
  27   2.0000      -1.117746       -30.4154
  28   2.0000      -1.029306       -28.0088
  29   2.0000      -0.965821       -26.2813
  30   2.0000      -0.898629       -24.4529
  31   2.0000      -0.879557       -23.9340
  32   2.0000      -0.854684       -23.2571
  33   2.0000      -0.829968       -22.5846
  34   2.0000      -0.795063       -21.6348
  35   2.0000      -0.762086       -20.7374
  36   2.0000      -0.737043       -20.0560
  37   2.0000      -0.732366       -19.9287
  38   2.0000      -0.715016       -19.4566
  39   2.0000      -0.636018       -17.3069
  40   2.0000      -0.630397       -17.1540
  41   2.0000      -0.616579       -16.7780
  42   2.0000      -0.599961       -16.3258
  43   2.0000      -0.589526       -16.0418
  44   2.0000      -0.542763       -14.7693
  45   2.0000      -0.535759       -14.5788
  46   2.0000      -0.508470       -13.8362
  47   2.0000      -0.500777       -13.6268
  48   2.0000      -0.493471       -13.4280
  49   2.0000      -0.490060       -13.3352
  50   2.0000      -0.479838       -13.0571
  51   2.0000      -0.464228       -12.6323
  52   2.0000      -0.456027       -12.4091
  53   2.0000      -0.450372       -12.2552
  54   2.0000      -0.440440       -11.9850
  55   2.0000      -0.439341       -11.9551
  56   2.0000      -0.415604       -11.3092
  57   2.0000      -0.412632       -11.2283
  58   2.0000      -0.407465       -11.0877
  59   2.0000      -0.401221       -10.9178
  60   2.0000      -0.392219       -10.6728
  61   2.0000      -0.384614       -10.4659
  62   2.0000      -0.376344       -10.2408
  63   2.0000      -0.369957       -10.0670
  64   2.0000      -0.355993        -9.6871
  65   2.0000      -0.350204        -9.5295
  66   2.0000      -0.339295        -9.2327
  67   2.0000      -0.329200        -8.9580
  68   2.0000      -0.327913        -8.9230
  69   2.0000      -0.326062        -8.8726
  70   2.0000      -0.315137        -8.5753
  71   2.0000      -0.297871        -8.1055
  72   2.0000      -0.263624        -7.1736
  73   2.0000      -0.255320        -6.9476
  74   2.0000      -0.253633        -6.9017
  75   2.0000      -0.215211        -5.8562
  76   0.0000      -0.033157        -0.9023
  77   0.0000      -0.031561        -0.8588
  78   0.0000      -0.019576        -0.5327
  79   0.0000      -0.004560        -0.1241
  80   0.0000       0.001372         0.0373

MULLIKEN ATOMIC CHARGES
-----------------------
   0 O :   -0.405981
   1 C :    0.313711
   2 O :   -0.372944
   3 C :   -0.186810
   4 C :   -0.062349
   5 C :   -0.173262
   6 C :   -0.173806
   7 C :   -0.137034
   8 C :   -0.231996
   9 C :    0.282229
  10 N :   -0.312501
  11 C :    0.174084
  12 C :    0.038697
  13 Cl:   -0.119054
  14 C :   -0.176183
  15 C :   -0.149286
  16 C :   -0.176620
  17 C :    0.065852
  18 Cl:   -0.120461
  19 H :    0.363697
  20 H :    0.143798
  21 H :    0.140866
  22 H :    0.134639
  23 H :    0.138149
  24 H :    0.141366
  25 H :    0.150878
  26 H :    0.253357
  27 H :    0.152149
  28 H :    0.152333
  29 H :    0.152481
Sum of atomic charges:   -0.0000000

LOEWDIN ATOMIC CHARGES
----------------------
   0 O :    0.105213
   1 C :   -0.482604
   2 O :    0.059436
   3 C :   -0.169283
   4 C :   -0.121328
   5 C :   -0.111496
   6 C :   -0.158278
   7 C :   -0.145603
   8 C :   -0.127049
   9 C :   -0.179239
  10 N :    0.157524
  11 C :   -0.221879
  12 C :   -0.388761
  13 Cl:    0.401537
  14 C :   -0.142985
  15 C :   -0.133987
  16 C :   -0.142385
  17 C :   -0.387321
  18 Cl:    0.383485
  19 H :    0.215815
  20 H :    0.162161
  21 H :    0.161975
  22 H :    0.155242
  23 H :    0.148059
  24 H :    0.150246
  25 H :    0.156205
  26 H :    0.185706
  27 H :    0.156433
  28 H :    0.156427
  29 H :    0.156732

  Mayer bond orders larger than 0.100000
B(  0-O ,  1-C ) :   1.2103 B(  0-O , 19-H ) :   0.8322 B(  1-C ,  2-O ) :   2.0396
B(  1-C ,  3-C ) :   0.9653 B(  3-C ,  4-C ) :   0.9387 B(  3-C , 20-H ) :   0.9441
B(  3-C , 21-H ) :   0.9585 B(  4-C ,  5-C ) :   1.3735 B(  4-C ,  9-C ) :   1.2868
B(  5-C ,  6-C ) :   1.3946 B(  5-C , 22-H ) :   0.9825 B(  6-C ,  7-C ) :   1.3748
B(  6-C , 23-H ) :   0.9850 B(  7-C ,  8-C ) :   1.4019 B(  7-C , 24-H ) :   0.9767
B(  8-C ,  9-C ) :   1.3642 B(  8-C , 25-H ) :   0.9661 B(  9-C , 10-N ) :   0.8962
B( 10-N , 11-C ) :   1.0487 B( 10-N , 26-H ) :   0.8955 B( 11-C , 12-C ) :   1.2683
B( 11-C , 17-C ) :   1.2564 B( 12-C , 13-Cl) :   0.9926 B( 12-C , 14-C ) :   1.3597
B( 14-C , 15-C ) :   1.3818 B( 14-C , 27-H ) :   0.9719 B( 15-C , 16-C ) :   1.3805
B( 15-C , 28-H ) :   0.9733 B( 16-C , 17-C ) :   1.3485 B( 16-C , 29-H ) :   0.9717
B( 17-C , 18-Cl) :   1.0289

FINAL SINGLE POINT ENERGY     -1665.523186042097

DIPOLE MOMENT
-------------

Method             : SCF
Type of density    : Electron Density
Multiplicity       :   1
Irrep              :   0
Energy             : -1665.5231860420969952 Eh
Relativity type    :
Basis              : AO
                                X                 Y                 Z
Electronic contribution:     -6.269468125       7.157537123      -1.026674376
Nuclear contribution   :      6.053685325      -5.607968358       1.056117002
                        -----------------------------------------
Total Dipole Moment    :     -0.215782800       1.549568765       0.029442626
                        -----------------------------------------
Magnitude (a.u.)       :      1.564797892
Magnitude (Debye)      :      3.977400153

Rotational constants in cm-1:             0.014165             0.008143             0.006287
Rotational constants in MHz :           424.668632           244.135966           188.472429

                             ****ORCA TERMINATED NORMALLY****
TOTAL RUN TIME: 0 days 2 hours 21 minutes 0 seconds 459 msec
