                         Program Version 6.0.0  -   RELEASE   -
|  1> # ORCA input file
|  2> #
|  3> !TPSS 6-311+G** Opt CPCM(WATER)
|  4> * xyz 0 1
|  5>    O        3.20532         0.77222        -3.48165
|  6>    C        3.01992        -0.42363        -2.87260
|  7>    O        2.60439        -1.40765        -3.47515
|  8>    C        3.32048        -0.40706        -1.39156
|  9>    C        4.77373        -0.12881        -1.08244
| 10>    C        5.66943        -1.21342        -1.10651
| 11>    C        7.03233        -1.02123        -0.89021
| 12>    C        7.51453         0.25274        -0.62393
| 13>    C        6.63498         1.33431        -0.58478
| 14>    C        5.26576         1.17391        -0.86041
| 15>    N        4.37299         2.29124        -0.86707
| 16>    C        4.78516         3.66554        -0.98266
| 17>    C        5.63181         4.12934        -2.01264
| 18>   Cl        6.08405         3.13842        -3.35906
| 19>    C        6.11423         5.44479        -2.01214
| 20>    C        5.70652         6.34622        -1.03224
| 21>    C        4.79176         5.94154        -0.06385
| 22>    C        4.33591         4.61788        -0.04136
| 23>   Cl        3.21047         4.17011         1.19560
| 24>    H        3.58943         1.44889        -2.88309
| 25>    H        3.04405        -1.38942        -0.98093
| 26>    H        2.64728         0.30494        -0.90399
| 27>    H        5.30989        -2.22054        -1.31624
| 28>    H        7.71565        -1.86518        -0.93248
| 29>    H        8.57673         0.41196        -0.45771
| 30>    H        7.04962         2.31347        -0.36106
| 31>    H        3.79458         2.21395        -0.02113
| 32>    H        6.80603         5.77305        -2.78574
| 33>    H        6.08452         7.36622        -1.03898
| 34>    H        4.44479         6.65940         0.67650
| 35> *
| 36>
| 37>                          ****END OF INPUT****
 Total Charge           Charge          ....    0
 Multiplicity           Mult            ....    1
 Number of Electrons    NEL             ....  152
FINAL SINGLE POINT ENERGY     -1666.124884948897
FINAL SINGLE POINT ENERGY     -1666.131691994002
FINAL SINGLE POINT ENERGY     -1666.134324374349
FINAL SINGLE POINT ENERGY     -1666.135711691946
FINAL SINGLE POINT ENERGY     -1666.136854647699
FINAL SINGLE POINT ENERGY     -1666.137159136736
FINAL SINGLE POINT ENERGY     -1666.137364138541
FINAL SINGLE POINT ENERGY     -1666.137411374441
FINAL SINGLE POINT ENERGY     -1666.137534817021
FINAL SINGLE POINT ENERGY     -1666.137557993679
FINAL SINGLE POINT ENERGY     -1666.137567711508
FINAL SINGLE POINT ENERGY     -1666.137572303107
                    ***********************HURRAY********************

CARTESIAN COORDINATES (ANGSTROEM)
---------------------------------
  O      3.127473    1.130561   -3.307582
  C      2.953694   -0.137935   -2.885728
  O      2.475480   -0.970861   -3.641152
  C      3.357566   -0.445693   -1.439815
  C      4.819292   -0.164082   -1.115852
  C      5.713044   -1.237087   -0.982736
  C      7.063114   -1.028321   -0.679226
  C      7.533558    0.274437   -0.488427
  C      6.657602    1.359355   -0.600950
  C      5.312604    1.144540   -0.920487
  N      4.374066    2.240171   -1.078879
  C      4.835215    3.584994   -1.067805
  C      5.612456    4.120003   -2.116312
  Cl     6.053599    3.092845   -3.474306
  C      6.025425    5.452229   -2.131634
  C      5.641153    6.303475   -1.092298
  C      4.851802    5.823659   -0.044789
  C      4.471999    4.481861   -0.041172
  Cl     3.486158    3.888712    1.296134
  H      3.546912    1.680429   -2.578559
  H      3.147003   -1.503445   -1.270781
  H      2.688919    0.131498   -0.785161
  H      5.337748   -2.249125   -1.121055
  H      7.736836   -1.876486   -0.587882
  H      8.577435    0.453136   -0.242522
  H      7.019052    2.371265   -0.436209
  H      3.597204    2.137886   -0.419085
  H      6.626515    5.816584   -2.958495
  H      5.951775    7.344229   -1.103108
  H      4.541639    6.474367    0.766364

 Multiplicity           Mult            ....    1
 Number of Electrons    NEL             ....  152
 Basis Dimension        Dim             ....  500

ORBITAL ENERGIES
----------------

  NO   OCC          E(Eh)            E(eV)
   0   2.0000    -101.034062     -2749.2766
   1   2.0000    -101.029765     -2749.1597
   2   2.0000     -18.921043      -514.8678
   3   2.0000     -18.876874      -513.6658
   4   2.0000     -14.150227      -385.0473
   5   2.0000     -10.121699      -275.4254
   6   2.0000     -10.069662      -274.0094
   7   2.0000     -10.068972      -273.9907
   8   2.0000     -10.064213      -273.8611
   9   2.0000     -10.044596      -273.3274
  10   2.0000     -10.014768      -272.5157
  11   2.0000     -10.014465      -272.5074
  12   2.0000     -10.013278      -272.4752
  13   2.0000     -10.012955      -272.4664
  14   2.0000     -10.009953      -272.3847
  15   2.0000      -9.999000      -272.0866
  16   2.0000      -9.998397      -272.0702
  17   2.0000      -9.997395      -272.0430
  18   2.0000      -9.993688      -271.9421
  19   2.0000      -9.270543      -252.2643
  20   2.0000      -9.266494      -252.1541
  21   2.0000      -7.052819      -191.9170
  22   2.0000      -7.048862      -191.8093
  23   2.0000      -7.041856      -191.6187
  24   2.0000      -7.041593      -191.6115
  25   2.0000      -7.037882      -191.5105
  26   2.0000      -7.037284      -191.4942
  27   2.0000      -1.031824       -28.0774
  28   2.0000      -0.953592       -25.9486
  29   2.0000      -0.913108       -24.8469
  30   2.0000      -0.844436       -22.9783
  31   2.0000      -0.826270       -22.4839
  32   2.0000      -0.801424       -21.8079
  33   2.0000      -0.778348       -21.1799
  34   2.0000      -0.739174       -20.1140
  35   2.0000      -0.712190       -19.3797
  36   2.0000      -0.690517       -18.7899
  37   2.0000      -0.684713       -18.6320
  38   2.0000      -0.662230       -18.0202
  39   2.0000      -0.591547       -16.0968
  40   2.0000      -0.578409       -15.7393
  41   2.0000      -0.569459       -15.4958
  42   2.0000      -0.557964       -15.1830
  43   2.0000      -0.547759       -14.9053
  44   2.0000      -0.502970       -13.6865
  45   2.0000      -0.497981       -13.5507
  46   2.0000      -0.478002       -13.0071
  47   2.0000      -0.462851       -12.5948
  48   2.0000      -0.451815       -12.2945
  49   2.0000      -0.443295       -12.0627
  50   2.0000      -0.430427       -11.7125
  51   2.0000      -0.421487       -11.4692
  52   2.0000      -0.414716       -11.2850
  53   2.0000      -0.409460       -11.1420
  54   2.0000      -0.407554       -11.0901
  55   2.0000      -0.404956       -11.0194
  56   2.0000      -0.383047       -10.4232
  57   2.0000      -0.374340       -10.1863
  58   2.0000      -0.367489        -9.9999
  59   2.0000      -0.360075        -9.7981
  60   2.0000      -0.355874        -9.6838
  61   2.0000      -0.347388        -9.4529
  62   2.0000      -0.342013        -9.3067
  63   2.0000      -0.338490        -9.2108
  64   2.0000      -0.321822        -8.7572
  65   2.0000      -0.319286        -8.6882
  66   2.0000      -0.301248        -8.1974
  67   2.0000      -0.299518        -8.1503
  68   2.0000      -0.299008        -8.1364
  69   2.0000      -0.290981        -7.9180
  70   2.0000      -0.283700        -7.7199
  71   2.0000      -0.255531        -6.9534
  72   2.0000      -0.243115        -6.6155
  73   2.0000      -0.234398        -6.3783
  74   2.0000      -0.230039        -6.2597
  75   2.0000      -0.209069        -5.6890
  76   0.0000      -0.062666        -1.7052
  77   0.0000      -0.061258        -1.6669
  78   0.0000      -0.051584        -1.4037
  79   0.0000      -0.042059        -1.1445
  80   0.0000      -0.039041        -1.0623

MULLIKEN ATOMIC CHARGES
-----------------------
   0 O :   -0.245261
   1 C :    0.045321
   2 O :   -0.350584
   3 C :   -0.792715
   4 C :    1.849530
   5 C :   -0.409675
   6 C :    0.059777
   7 C :   -0.357821
   8 C :   -0.737169
   9 C :   -0.935570
  10 N :    0.239158
  11 C :   -4.057250
  12 C :    2.502355
  13 Cl:    0.185899
  14 C :   -0.143544
  15 C :    0.122505
  16 C :   -0.619804
  17 C :    0.908770
  18 Cl:    0.305758
  19 H :    0.421039
  20 H :    0.222530
  21 H :    0.269530
  22 H :    0.165208
  23 H :    0.163051
  24 H :    0.165022
  25 H :    0.198903
  26 H :    0.265432
  27 H :    0.188382
  28 H :    0.181301
  29 H :    0.189922
Sum of atomic charges:    0.0000000

LOEWDIN ATOMIC CHARGES
----------------------
   0 O :   -0.082742
   1 C :   -0.005681
   2 O :   -0.233628
   3 C :   -0.054870
   4 C :   -0.097776
   5 C :   -0.046085
   6 C :   -0.066091
   7 C :   -0.051030
   8 C :   -0.063789
   9 C :   -0.074411
  10 N :   -0.095376
  11 C :   -0.126879
  12 C :   -0.231429
  13 Cl:    0.274563
  14 C :   -0.068932
  15 C :   -0.040509
  16 C :   -0.068972
  17 C :   -0.227753
  18 Cl:    0.243834
  19 H :    0.125571
  20 H :    0.101574
  21 H :    0.111194
  22 H :    0.090615
  23 H :    0.081290
  24 H :    0.082734
  25 H :    0.102305
  26 H :    0.137858
  27 H :    0.097593
  28 H :    0.089438
  29 H :    0.097383

  Mayer bond orders larger than 0.100000
B(  0-O ,  1-C ) :   1.2330 B(  0-O , 10-N ) :   0.1242 B(  0-O , 11-C ) :   0.1143
B(  0-O , 12-C ) :  -0.2438 B(  0-O , 17-C ) :   0.1539 B(  0-O , 19-H ) :   0.7046
B(  1-C ,  2-O ) :   1.9247 B(  1-C ,  3-C ) :   0.9892 B(  1-C ,  4-C ) :  -0.1226
B(  1-C ,  5-C ) :  -0.1931 B(  1-C ,  9-C ) :   0.2434 B(  1-C , 17-C ) :  -0.1014
B(  2-O ,  3-C ) :   0.1221 B(  2-O ,  4-C ) :  -0.1277 B(  3-C ,  4-C ) :  -0.2170
B(  3-C ,  5-C ) :  -0.6659 B(  3-C ,  9-C ) :   0.8279 B(  3-C , 10-N ) :  -0.1343
B(  3-C , 11-C ) :  -0.2262 B(  3-C , 14-C ) :  -0.1821 B(  3-C , 17-C ) :   0.3929
B(  3-C , 20-H ) :   1.0405 B(  3-C , 21-H ) :   1.1026 B(  4-C ,  5-C ) :   0.8684
B(  4-C ,  6-C ) :  -0.2144 B(  4-C ,  7-C ) :   0.3090 B(  4-C ,  9-C ) :   1.4135
B(  4-C , 10-N ) :  -0.5939 B(  4-C , 11-C ) :  -0.1191 B(  4-C , 12-C ) :  -0.3895
B(  4-C , 14-C ) :   2.2794 B(  4-C , 15-C ) :   0.2396 B(  4-C , 16-C ) :   0.2150
B(  4-C , 17-C ) :  -2.0628 B(  4-C , 18-Cl) :  -0.1510 B(  4-C , 21-H ) :  -0.1355
B(  4-C , 22-H ) :  -0.2228 B(  4-C , 26-H ) :  -0.2653 B(  5-C ,  6-C ) :   1.2642
B(  5-C ,  7-C ) :   0.1983 B(  5-C ,  8-C ) :  -0.3513 B(  5-C ,  9-C ) :   0.5461
B(  5-C , 12-C ) :   0.1998 B(  5-C , 14-C ) :   0.4034 B(  5-C , 17-C ) :  -0.5125
B(  5-C , 20-H ) :  -0.1683 B(  5-C , 22-H ) :   1.0858 B(  6-C ,  7-C ) :   1.3138
B(  6-C ,  8-C ) :  -0.1351 B(  6-C , 23-H ) :   0.9975 B(  7-C ,  8-C ) :   0.9425
B(  7-C , 11-C ) :   0.3847 B(  7-C , 13-Cl) :  -0.1306 B(  7-C , 14-C ) :  -0.3404
B(  7-C , 15-C ) :  -0.1408 B(  7-C , 16-C ) :   0.2909 B(  7-C , 24-H ) :   1.0079
B(  7-C , 25-H ) :  -0.1722 B(  8-C ,  9-C ) :   1.9614 B(  8-C , 10-N ) :  -0.2519
B(  8-C , 11-C ) :   1.2161 B(  8-C , 12-C ) :  -0.5417 B(  8-C , 13-Cl) :   0.7488
B(  8-C , 14-C ) :  -1.1795 B(  8-C , 15-C ) :  -0.1063 B(  8-C , 16-C ) :   0.1176
B(  8-C , 17-C ) :   1.1555 B(  8-C , 18-Cl) :   0.2132 B(  8-C , 25-H ) :   1.0196
B(  8-C , 26-H ) :   0.1620 B(  9-C , 10-N ) :   1.1512 B(  9-C , 11-C ) :  -0.9418
B(  9-C , 12-C ) :   0.4378 B(  9-C , 13-Cl) :  -0.6673 B(  9-C , 14-C ) :  -1.3604
B(  9-C , 16-C ) :  -0.4727 B(  9-C , 17-C ) :   1.5979 B(  9-C , 18-Cl) :  -0.1003
B(  9-C , 19-H ) :  -0.1071 B(  9-C , 20-H ) :   0.1479 B(  9-C , 22-H ) :   0.1822
B(  9-C , 26-H ) :   0.1951 B( 10-N , 11-C ) :   0.7570 B( 10-N , 14-C ) :   0.2740
B( 10-N , 16-C ) :   0.1108 B( 10-N , 17-C ) :  -0.2184 B( 10-N , 18-Cl) :  -0.2816
B( 10-N , 26-H ) :   0.8107 B( 11-C , 12-C ) :  -2.8633 B( 11-C , 13-Cl) :   2.5089
B( 11-C , 14-C ) :  -2.0942 B( 11-C , 15-C ) :  -0.6029 B( 11-C , 16-C ) :   0.4438
B( 11-C , 17-C ) :   3.2204 B( 11-C , 18-Cl) :   3.1220 B( 11-C , 26-H ) :   0.2016
B( 11-C , 29-H ) :   0.2630 B( 12-C , 13-Cl) :  -2.0408 B( 12-C , 14-C ) :   2.3925
B( 12-C , 15-C ) :   0.1483 B( 12-C , 16-C ) :  -0.6237 B( 12-C , 17-C ) :   0.9513
B( 12-C , 18-Cl) :   0.5336 B( 12-C , 19-H ) :  -0.1795 B( 12-C , 26-H ) :   0.1117
B( 12-C , 27-H ) :  -0.1240 B( 13-Cl, 14-C ) :   0.2484 B( 13-Cl, 16-C ) :   0.1913
B( 13-Cl, 17-C ) :   0.2079 B( 14-C , 15-C ) :   1.2739 B( 14-C , 16-C ) :   0.7556
B( 14-C , 17-C ) :  -0.2386 B( 14-C , 18-Cl) :   0.1858 B( 14-C , 27-H ) :   1.0174
B( 15-C , 16-C ) :   1.0197 B( 15-C , 17-C ) :   0.2741 B( 15-C , 28-H ) :   0.9787
B( 15-C , 29-H ) :  -0.1023 B( 16-C , 17-C ) :   0.8564 B( 16-C , 18-Cl) :   0.3759
B( 16-C , 29-H ) :   1.0038 B( 17-C , 18-Cl) :  -3.0172 B( 17-C , 19-H ) :   0.1857
B( 17-C , 26-H ) :  -0.2349 B( 17-C , 29-H ) :  -0.2155 B( 18-Cl, 26-H ) :   0.1085

FINAL SINGLE POINT ENERGY     -1666.137573393715

DIPOLE MOMENT
-------------

Method             : SCF
Type of density    : Electron Density
Multiplicity       :   1
Irrep              :   0
Energy             : -1666.1375733937154564 Eh
Relativity type    :
Basis              : AO
                                X                 Y                 Z
Electronic contribution:     -3.528521204       8.929667071      -0.507714663
Nuclear contribution   :      4.952146351      -6.879789963       3.148775917
                        -----------------------------------------
Total Dipole Moment    :      1.423625147       2.049877108       2.641061254
                        -----------------------------------------
Magnitude (a.u.)       :      3.633718380
Magnitude (Debye)      :      9.236178110

Rotational constants in cm-1:             0.014072             0.007484             0.007364
Rotational constants in MHz :           421.865455           224.365546           220.758385

                             ****ORCA TERMINATED NORMALLY****
TOTAL RUN TIME: 0 days 0 hours 26 minutes 47 seconds 744 msec
