                         Program Version 6.0.0  -   RELEASE   -
|  1> # ORCA input file
|  2> #
|  3> !TPSS STO-3G Opt CPCM(WATER)
|  4> * xyz 0 1
|  5>    C       -0.49838         1.45672         0.09896
|  6>    C        0.83636         1.86187         0.13987
|  7>    C        1.85850         0.90964         0.07692
|  8>    C        1.52705        -0.44553         0.10327
|  9>    C        0.19399        -0.85911         0.06588
| 10>    C       -0.81311         0.09845         0.04328
| 11>   Cl       -2.45804        -0.38995        -0.04430
| 12>    O        2.48623        -1.41804         0.15924
| 13>    O        3.19540         1.23915         0.00408
| 14>    C        3.55840         2.36555        -0.71342
| 15>    C        4.59924         3.16189        -0.21840
| 16>    C        4.97545         4.33057        -0.88996
| 17>    C        4.31222         4.69779        -2.05616
| 18>    C        3.30213         3.89395        -2.58058
| 19>    C        2.94419         2.71337        -1.92599
| 20>   Cl        4.74503         6.15332        -2.86475
| 21>   Cl        5.43890         2.74189         1.23085
| 22>    H       -1.28677         2.20447         0.09898
| 23>    H        1.06264         2.92223         0.19335
| 24>    H       -0.04081        -1.92109         0.05235
| 25>    H        3.32941        -0.97731         0.37369
| 26>    H        5.77651         4.95189        -0.49678
| 27>    H        2.78688         4.18033        -3.49530
| 28>    H        2.16802         2.08687        -2.36091
| 29> **                         ****END OF INPUT****
 Total Charge           Charge          ....    0
 Multiplicity           Mult            ....    1
 Number of Electrons    NEL             ....  146
FINAL SINGLE POINT ENERGY     -1970.047412668979
FINAL SINGLE POINT ENERGY     -1970.079297973350
FINAL SINGLE POINT ENERGY     -1970.086226565347
FINAL SINGLE POINT ENERGY     -1970.088623039543
FINAL SINGLE POINT ENERGY     -1970.089337120724
FINAL SINGLE POINT ENERGY     -1970.090020862587
FINAL SINGLE POINT ENERGY     -1970.090739762050
FINAL SINGLE POINT ENERGY     -1970.090831523551
FINAL SINGLE POINT ENERGY     -1970.090862485320
FINAL SINGLE POINT ENERGY     -1970.090866293202
FINAL SINGLE POINT ENERGY     -1970.090868536635
FINAL SINGLE POINT ENERGY     -1970.090869312946
                    ***********************HURRAY********************

CARTESIAN COORDINATES (ANGSTROEM)
---------------------------------
  C     -0.803254    1.270350    0.133343
  C      0.465472    1.899631    0.211701
  C      1.619708    1.093776    0.159296
  C      1.551236   -0.342186    0.070301
  C      0.278676   -0.976858   -0.006272
  C     -0.863993   -0.142619    0.025159
  Cl    -2.502577   -0.931513   -0.072106
  O      2.770472   -1.038071    0.065402
  O      3.006896    1.505743    0.348289
  C      3.458211    2.534490   -0.549832
  C      4.710610    3.143012   -0.208199
  C      5.294362    4.143349   -1.016285
  C      4.601043    4.535800   -2.189794
  C      3.365765    3.948768   -2.560924
  C      2.799069    2.947567   -1.743180
  Cl     5.325471    5.825129   -3.239312
  Cl     5.558120    2.598861    1.297159
  H     -1.726478    1.869650    0.160658
  H      0.540538    2.996614    0.300087
  H      0.192628   -2.071855   -0.085860
  H      3.404532   -0.196435    0.144248
  H      6.257179    4.602625   -0.736812
  H      2.851759    4.265554   -3.483764
  H      1.843993    2.477538   -2.029136

 Multiplicity           Mult            ....    1
 Number of Electrons    NEL             ....  146
 Basis Dimension        Dim             ....  104

ORBITAL ENERGIES
----------------

  NO   OCC          E(Eh)            E(eV)
   0   2.0000     -99.936195     -2719.4021
   1   2.0000     -99.929373     -2719.2165
   2   2.0000     -99.916506     -2718.8664
   3   2.0000     -18.771488      -510.7982
   4   2.0000     -18.713329      -509.2156
   5   2.0000      -9.917703      -269.8744
   6   2.0000      -9.906226      -269.5621
   7   2.0000      -9.901356      -269.4296
   8   2.0000      -9.892835      -269.1977
   9   2.0000      -9.889357      -269.1031
  10   2.0000      -9.884623      -268.9743
  11   2.0000      -9.871183      -268.6085
  12   2.0000      -9.863204      -268.3914
  13   2.0000      -9.859938      -268.3025
  14   2.0000      -9.850843      -268.0551
  15   2.0000      -9.843479      -267.8547
  16   2.0000      -9.840997      -267.7871
  17   2.0000      -9.044776      -246.1209
  18   2.0000      -9.038599      -245.9528
  19   2.0000      -9.026923      -245.6351
  20   2.0000      -6.850860      -186.4214
  21   2.0000      -6.844561      -186.2500
  22   2.0000      -6.833727      -185.9552
  23   2.0000      -6.833051      -185.9368
  24   2.0000      -6.832648      -185.9258
  25   2.0000      -6.827605      -185.7886
  26   2.0000      -6.826885      -185.7690
  27   2.0000      -6.815995      -185.4726
  28   2.0000      -6.815267      -185.4528
  29   2.0000      -0.971994       -26.4493
  30   2.0000      -0.924140       -25.1471
  31   2.0000      -0.795816       -21.6553
  32   2.0000      -0.771735       -21.0000
  33   2.0000      -0.751648       -20.4534
  34   2.0000      -0.717579       -19.5263
  35   2.0000      -0.713191       -19.4069
  36   2.0000      -0.661132       -17.9903
  37   2.0000      -0.657746       -17.8982
  38   2.0000      -0.645518       -17.5654
  39   2.0000      -0.615462       -16.7476
  40   2.0000      -0.550607       -14.9828
  41   2.0000      -0.538249       -14.6465
  42   2.0000      -0.514029       -13.9874
  43   2.0000      -0.502706       -13.6793
  44   2.0000      -0.463118       -12.6021
  45   2.0000      -0.431261       -11.7352
  46   2.0000      -0.413148       -11.2423
  47   2.0000      -0.407566       -11.0904
  48   2.0000      -0.393211       -10.6998
  49   2.0000      -0.387212       -10.5366
  50   2.0000      -0.372307       -10.1310
  51   2.0000      -0.363467        -9.8904
  52   2.0000      -0.362871        -9.8742
  53   2.0000      -0.337922        -9.1953
  54   2.0000      -0.328047        -8.9266
  55   2.0000      -0.320686        -8.7263
  56   2.0000      -0.315462        -8.5842
  57   2.0000      -0.308669        -8.3993
  58   2.0000      -0.299480        -8.1493
  59   2.0000      -0.274885        -7.4800
  60   2.0000      -0.267993        -7.2925
  61   2.0000      -0.253979        -6.9111
  62   2.0000      -0.245858        -6.6901
  63   2.0000      -0.235598        -6.4110
  64   2.0000      -0.223753        -6.0886
  65   2.0000      -0.221279        -6.0213
  66   2.0000      -0.216878        -5.9016
  67   2.0000      -0.210890        -5.7386
  68   2.0000      -0.209942        -5.7128
  69   2.0000      -0.187237        -5.0950
  70   2.0000      -0.172182        -4.6853
  71   2.0000      -0.147485        -4.0133
  72   2.0000      -0.117969        -3.2101
  73   0.0000       0.022429         0.6103
  74   0.0000       0.022735         0.6186
  75   0.0000       0.038929         1.0593
  76   0.0000       0.048632         1.3234
  77   0.0000       0.053723         1.4619

MULLIKEN ATOMIC CHARGES
-----------------------
   0 C :   -0.081147
   1 C :   -0.079168
   2 C :    0.052153
   3 C :    0.074312
   4 C :   -0.091137
   5 C :    0.024857
   6 Cl:   -0.144947
   7 O :   -0.190458
   8 O :   -0.135571
   9 C :    0.093098
  10 C :    0.021493
  11 C :   -0.061609
  12 C :    0.025827
  13 C :   -0.061151
  14 C :   -0.075542
  15 Cl:   -0.124861
  16 Cl:   -0.114111
  17 H :    0.099270
  18 H :    0.103660
  19 H :    0.103727
  20 H :    0.219410
  21 H :    0.120330
  22 H :    0.111358
  23 H :    0.110207
Sum of atomic charges:   -0.0000000

LOEWDIN ATOMIC CHARGES
----------------------
   0 C :   -0.060799
   1 C :   -0.048601
   2 C :    0.024256
   3 C :    0.052102
   4 C :   -0.077650
   5 C :    0.023407
   6 Cl:   -0.112523
   7 O :   -0.106096
   8 O :   -0.054316
   9 C :    0.066626
  10 C :    0.004839
  11 C :   -0.042794
  12 C :    0.018727
  13 C :   -0.032925
  14 C :   -0.049897
  15 Cl:   -0.092800
  16 Cl:   -0.081932
  17 H :    0.060093
  18 H :    0.063814
  19 H :    0.064377
  20 H :    0.166185
  21 H :    0.077259
  22 H :    0.069339
  23 H :    0.069312

  Mayer bond orders larger than 0.100000
B(  0-C ,  1-C ) :   1.3957 B(  0-C ,  5-C ) :   1.3888 B(  0-C , 17-H ) :   0.9555
B(  1-C ,  2-C ) :   1.4104 B(  1-C , 18-H ) :   0.9528 B(  2-C ,  3-C ) :   1.2561
B(  2-C ,  8-O ) :   0.9603 B(  3-C ,  4-C ) :   1.3277 B(  3-C ,  7-O ) :   1.1688
B(  4-C ,  5-C ) :   1.4069 B(  4-C , 19-H ) :   0.9537 B(  5-C ,  6-Cl) :   0.9460
B(  7-O , 20-H ) :   0.8454 B(  8-O ,  9-C ) :   1.0218 B(  9-C , 10-C ) :   1.3101
B(  9-C , 14-C ) :   1.3515 B( 10-C , 11-C ) :   1.4154 B( 10-C , 16-Cl) :   0.9592
B( 11-C , 12-C ) :   1.3812 B( 11-C , 14-C ) :   0.1010 B( 11-C , 21-H ) :   0.9500
B( 12-C , 13-C ) :   1.3882 B( 12-C , 15-Cl) :   0.9565 B( 13-C , 14-C ) :   1.4317
B( 13-C , 22-H ) :   0.9530 B( 14-C , 23-H ) :   0.9468

FINAL SINGLE POINT ENERGY     -1970.090869539410

DIPOLE MOMENT
-------------

Method             : SCF
Type of density    : Electron Density
Multiplicity       :   1
Irrep              :   0
Energy             : -1970.0908695394100505 Eh
Relativity type    :
Basis              : AO
                                X                 Y                 Z
Electronic contribution:      5.225507205       2.557705446       0.886553919
Nuclear contribution   :     -5.026191881      -2.081687990      -1.221947267
                        -----------------------------------------
Total Dipole Moment    :      0.199315325       0.476017456      -0.335393348
                        -----------------------------------------
Magnitude (a.u.)       :      0.615473732
Magnitude (Debye)      :      1.564409902

Rotational constants in cm-1:             0.021217             0.004782             0.004138
Rotational constants in MHz :           636.069852           143.370124           124.041122

                             ****ORCA TERMINATED NORMALLY****
TOTAL RUN TIME: 0 days 0 hours 2 minutes 31 seconds 61 msec
