                         Program Version 6.0.0  -   RELEASE   -
|  1> # ORCA input file
|  2> #
|  3> !PBE def2-TZVP Opt CPCM(WATER)
|  4> * xyz 0 1
|  5>    C       -0.49838         1.45672         0.09896
|  6>    C        0.83636         1.86187         0.13987
|  7>    C        1.85850         0.90964         0.07692
|  8>    C        1.52705        -0.44553         0.10327
|  9>    C        0.19399        -0.85911         0.06588
| 10>    C       -0.81311         0.09845         0.04328
| 11>   Cl       -2.45804        -0.38995        -0.04430
| 12>    O        2.48623        -1.41804         0.15924
| 13>    O        3.19540         1.23915         0.00408
| 14>    C        3.55840         2.36555        -0.71342
| 15>    C        4.59924         3.16189        -0.21840
| 16>    C        4.97545         4.33057        -0.88996
| 17>    C        4.31222         4.69779        -2.05616
| 18>    C        3.30213         3.89395        -2.58058
| 19>    C        2.94419         2.71337        -1.92599
| 20>   Cl        4.74503         6.15332        -2.86475
| 21>   Cl        5.43890         2.74189         1.23085
| 22>    H       -1.28677         2.20447         0.09898
| 23>    H        1.06264         2.92223         0.19335
| 24>    H       -0.04081        -1.92109         0.05235
| 25>    H        3.32941        -0.97731         0.37369
| 26>    H        5.77651         4.95189        -0.49678
| 27>    H        2.78688         4.18033        -3.49530
| 28>    H        2.16802         2.08687        -2.36091
| 29> **                         ****END OF INPUT****
 Total Charge           Charge          ....    0
 Multiplicity           Mult            ....    1
 Number of Electrons    NEL             ....  146
FINAL SINGLE POINT ENERGY     -1991.521278786769
FINAL SINGLE POINT ENERGY     -1991.524688787530
FINAL SINGLE POINT ENERGY     -1991.525808744678
FINAL SINGLE POINT ENERGY     -1991.525974205016
FINAL SINGLE POINT ENERGY     -1991.526071104389
FINAL SINGLE POINT ENERGY     -1991.526118965459
FINAL SINGLE POINT ENERGY     -1991.526213936313
FINAL SINGLE POINT ENERGY     -1991.526332774445
FINAL SINGLE POINT ENERGY     -1991.526411613854
FINAL SINGLE POINT ENERGY     -1991.526493750700
FINAL SINGLE POINT ENERGY     -1991.526501686076
FINAL SINGLE POINT ENERGY     -1991.526504554616
FINAL SINGLE POINT ENERGY     -1991.526505459067
                    ***********************HURRAY********************

CARTESIAN COORDINATES (ANGSTROEM)
---------------------------------
  C     -0.728717    1.321996    0.290412
  C      0.543006    1.890721    0.383223
  C      1.675810    1.101629    0.206974
  C      1.564615   -0.276965   -0.048036
  C      0.292884   -0.855023   -0.136535
  C     -0.830027   -0.046564    0.029336
  Cl    -2.415050   -0.776556   -0.087955
  O      2.659623   -1.065880   -0.205854
  O      2.967681    1.601123    0.368918
  C      3.439910    2.548622   -0.513077
  C      4.598390    3.251211   -0.137841
  C      5.159926    4.205660   -0.984583
  C      4.554103    4.458141   -2.215802
  C      3.407580    3.768716   -2.609547
  C      2.856380    2.814286   -1.754723
  Cl     5.251126    5.659210   -3.274600
  Cl     5.344893    2.924979    1.397599
  H     -1.621661    1.930896    0.424843
  H      0.656819    2.955691    0.592313
  H      0.199809   -1.922766   -0.334812
  H      3.457134   -0.510421   -0.082788
  H      6.056257    4.743799   -0.678726
  H      2.946190    3.968191   -3.576380
  H      1.962757    2.268221   -2.058186

 Multiplicity           Mult            ....    1
 Number of Electrons    NEL             ....  146
 Basis Dimension        Dim             ....  587

ORBITAL ENERGIES
----------------

  NO   OCC          E(Eh)            E(eV)
   0   2.0000    -100.676123     -2739.5366
   1   2.0000    -100.671322     -2739.4060
   2   2.0000    -100.669545     -2739.3576
   3   2.0000     -18.819172      -512.0957
   4   2.0000     -18.795098      -511.4406
   5   2.0000      -9.972287      -271.3597
   6   2.0000      -9.964417      -271.1456
   7   2.0000      -9.961414      -271.0638
   8   2.0000      -9.957770      -270.9647
   9   2.0000      -9.956218      -270.9225
  10   2.0000      -9.955389      -270.8999
  11   2.0000      -9.913149      -269.7505
  12   2.0000      -9.908309      -269.6188
  13   2.0000      -9.907933      -269.6086
  14   2.0000      -9.906096      -269.5586
  15   2.0000      -9.902472      -269.4600
  16   2.0000      -9.900189      -269.3978
  17   2.0000      -9.189582      -250.0612
  18   2.0000      -9.184937      -249.9348
  19   2.0000      -9.183209      -249.8878
  20   2.0000      -7.013111      -190.8365
  21   2.0000      -7.008293      -190.7053
  22   2.0000      -7.006494      -190.6564
  23   2.0000      -7.003012      -190.5616
  24   2.0000      -7.002265      -190.5413
  25   2.0000      -6.998308      -190.4336
  26   2.0000      -6.997826      -190.4205
  27   2.0000      -6.996636      -190.3881
  28   2.0000      -6.996110      -190.3738
  29   2.0000      -1.018012       -27.7015
  30   2.0000      -0.984073       -26.7780
  31   2.0000      -0.835737       -22.7416
  32   2.0000      -0.820434       -22.3251
  33   2.0000      -0.806643       -21.9499
  34   2.0000      -0.770918       -20.9778
  35   2.0000      -0.760304       -20.6889
  36   2.0000      -0.697184       -18.9714
  37   2.0000      -0.693107       -18.8604
  38   2.0000      -0.687281       -18.7019
  39   2.0000      -0.652836       -17.7646
  40   2.0000      -0.593012       -16.1367
  41   2.0000      -0.574427       -15.6310
  42   2.0000      -0.567513       -15.4428
  43   2.0000      -0.548334       -14.9209
  44   2.0000      -0.519699       -14.1417
  45   2.0000      -0.490600       -13.3499
  46   2.0000      -0.465932       -12.6787
  47   2.0000      -0.460548       -12.5322
  48   2.0000      -0.450943       -12.2708
  49   2.0000      -0.431418       -11.7395
  50   2.0000      -0.416465       -11.3326
  51   2.0000      -0.405140       -11.0244
  52   2.0000      -0.400997       -10.9117
  53   2.0000      -0.397134       -10.8066
  54   2.0000      -0.391781       -10.6609
  55   2.0000      -0.376051       -10.2329
  56   2.0000      -0.368696       -10.0327
  57   2.0000      -0.360944        -9.8218
  58   2.0000      -0.357669        -9.7327
  59   2.0000      -0.345625        -9.4049
  60   2.0000      -0.341262        -9.2862
  61   2.0000      -0.331152        -9.0111
  62   2.0000      -0.326792        -8.8925
  63   2.0000      -0.315932        -8.5969
  64   2.0000      -0.293387        -7.9835
  65   2.0000      -0.287829        -7.8322
  66   2.0000      -0.281995        -7.6735
  67   2.0000      -0.281350        -7.6559
  68   2.0000      -0.280379        -7.6295
  69   2.0000      -0.241504        -6.5716
  70   2.0000      -0.233169        -6.3449
  71   2.0000      -0.218118        -5.9353
  72   2.0000      -0.205285        -5.5861
  73   0.0000      -0.068281        -1.8580
  74   0.0000      -0.058966        -1.6046
  75   0.0000      -0.052336        -1.4241
  76   0.0000      -0.042776        -1.1640
  77   0.0000      -0.031785        -0.8649

MULLIKEN ATOMIC CHARGES
-----------------------
   0 C :   -0.215126
   1 C :   -0.185998
   2 C :    0.191010
   3 C :    0.139191
   4 C :   -0.297418
   5 C :    0.218553
   6 Cl:   -0.130094
   7 O :   -0.362189
   8 O :   -0.255973
   9 C :    0.284210
  10 C :    0.036500
  11 C :   -0.224259
  12 C :    0.183662
  13 C :   -0.202086
  14 C :   -0.217170
  15 Cl:   -0.124443
  16 Cl:   -0.101006
  17 H :    0.146242
  18 H :    0.156729
  19 H :    0.140108
  20 H :    0.353234
  21 H :    0.149548
  22 H :    0.150083
  23 H :    0.166692
Sum of atomic charges:    0.0000000

LOEWDIN ATOMIC CHARGES
----------------------
   0 C :   -0.158988
   1 C :   -0.107040
   2 C :   -0.231911
   3 C :   -0.261385
   4 C :   -0.125705
   5 C :   -0.430934
   6 Cl:    0.376046
   7 O :    0.107912
   8 O :    0.328220
   9 C :   -0.246263
  10 C :   -0.409427
  11 C :   -0.145349
  12 C :   -0.435767
  13 C :   -0.139529
  14 C :   -0.108296
  15 Cl:    0.381372
  16 Cl:    0.408710
  17 H :    0.158270
  18 H :    0.168543
  19 H :    0.162710
  20 H :    0.212445
  21 H :    0.163440
  22 H :    0.161758
  23 H :    0.171169

  Mayer bond orders larger than 0.100000
B(  0-C ,  1-C ) :   1.3807 B(  0-C ,  5-C ) :   1.3275 B(  0-C ,  6-Cl) :   0.1017
B(  0-C , 17-H ) :   0.9678 B(  1-C ,  2-C ) :   1.3459 B(  1-C , 18-H ) :   0.9577
B(  2-C ,  3-C ) :   1.2678 B(  2-C ,  8-O ) :   0.8869 B(  3-C ,  4-C ) :   1.3597
B(  3-C ,  7-O ) :   1.2506 B(  4-C ,  5-C ) :   1.3561 B(  4-C , 19-H ) :   0.9714
B(  5-C ,  6-Cl) :   0.9101 B(  7-O , 20-H ) :   0.8376 B(  8-O ,  9-C ) :   1.0522
B(  9-C , 10-C ) :   1.2398 B(  9-C , 14-C ) :   1.3458 B( 10-C , 11-C ) :   1.3363
B( 10-C , 16-Cl) :   1.0297 B( 11-C , 12-C ) :   1.3167 B( 11-C , 15-Cl) :   0.1004
B( 11-C , 21-H ) :   0.9672 B( 12-C , 13-C ) :   1.3322 B( 12-C , 15-Cl) :   0.9164
B( 13-C , 14-C ) :   1.3959 B( 13-C , 22-H ) :   0.9655 B( 14-C , 23-H ) :   0.9444

FINAL SINGLE POINT ENERGY     -1991.526505587244

DIPOLE MOMENT
-------------

Method             : SCF
Type of density    : Electron Density
Multiplicity       :   1
Irrep              :   0
Energy             : -1991.5265055872439461 Eh
Relativity type    :
Basis              : AO
                                X                 Y                 Z
Electronic contribution:      4.502093485       3.517915817       0.992149990
Nuclear contribution   :     -4.409304919      -3.100026588      -1.275769840
                        -----------------------------------------
Total Dipole Moment    :      0.092788566       0.417889229      -0.283619850
                        -----------------------------------------
Magnitude (a.u.)       :      0.513499119
Magnitude (Debye)      :      1.305211033

Rotational constants in cm-1:             0.021769             0.004954             0.004380
Rotational constants in MHz :           652.606801           148.519908           131.298727

                             ****ORCA TERMINATED NORMALLY****
TOTAL RUN TIME: 0 days 0 hours 14 minutes 53 seconds 992 msec
