                         Program Version 6.0.0  -   RELEASE   -
|  1> # ORCA input file
|  2> #
|  3> !PBE 6-311+G** Opt CPCM(WATER)
|  4> * xyz 0 1
|  5>    C       -0.49838         1.45672         0.09896
|  6>    C        0.83636         1.86187         0.13987
|  7>    C        1.85850         0.90964         0.07692
|  8>    C        1.52705        -0.44553         0.10327
|  9>    C        0.19399        -0.85911         0.06588
| 10>    C       -0.81311         0.09845         0.04328
| 11>   Cl       -2.45804        -0.38995        -0.04430
| 12>    O        2.48623        -1.41804         0.15924
| 13>    O        3.19540         1.23915         0.00408
| 14>    C        3.55840         2.36555        -0.71342
| 15>    C        4.59924         3.16189        -0.21840
| 16>    C        4.97545         4.33057        -0.88996
| 17>    C        4.31222         4.69779        -2.05616
| 18>    C        3.30213         3.89395        -2.58058
| 19>    C        2.94419         2.71337        -1.92599
| 20>   Cl        4.74503         6.15332        -2.86475
| 21>   Cl        5.43890         2.74189         1.23085
| 22>    H       -1.28677         2.20447         0.09898
| 23>    H        1.06264         2.92223         0.19335
| 24>    H       -0.04081        -1.92109         0.05235
| 25>    H        3.32941        -0.97731         0.37369
| 26>    H        5.77651         4.95189        -0.49678
| 27>    H        2.78688         4.18033        -3.49530
| 28>    H        2.16802         2.08687        -2.36091
| 29> **                         ****END OF INPUT****
 Total Charge           Charge          ....    0
 Multiplicity           Mult            ....    1
 Number of Electrons    NEL             ....  146
FINAL SINGLE POINT ENERGY     -1991.442421986099
FINAL SINGLE POINT ENERGY     -1991.446760954384
FINAL SINGLE POINT ENERGY     -1991.448064977729
FINAL SINGLE POINT ENERGY     -1991.448270845018
FINAL SINGLE POINT ENERGY     -1991.448364373621
FINAL SINGLE POINT ENERGY     -1991.448405211721
FINAL SINGLE POINT ENERGY     -1991.448472127827
FINAL SINGLE POINT ENERGY     -1991.448567661060
FINAL SINGLE POINT ENERGY     -1991.448653170492
FINAL SINGLE POINT ENERGY     -1991.448732737941
FINAL SINGLE POINT ENERGY     -1991.448755435919
FINAL SINGLE POINT ENERGY     -1991.448759102810
FINAL SINGLE POINT ENERGY     -1991.448760586966
FINAL SINGLE POINT ENERGY     -1991.448759000039
FINAL SINGLE POINT ENERGY     -1991.448760891082
                    ***********************HURRAY********************

CARTESIAN COORDINATES (ANGSTROEM)
---------------------------------
  C     -0.727464    1.327206    0.294464
  C      0.549892    1.891692    0.383254
  C      1.679442    1.094155    0.202979
  C      1.562029   -0.287069   -0.046090
  C      0.285609   -0.861770   -0.131684
  C     -0.833190   -0.044078    0.035996
  Cl    -2.433805   -0.771866   -0.078744
  O      2.655818   -1.081872   -0.205213
  O      2.978399    1.585020    0.358339
  C      3.444176    2.544572   -0.519712
  C      4.597785    3.255184   -0.138453
  C      5.158234    4.218543   -0.980061
  C      4.551672    4.468109   -2.214341
  C      3.409563    3.771892   -2.617195
  C      2.861714    2.808513   -1.765157
  Cl     5.247610    5.687285   -3.274380
  Cl     5.344304    2.927111    1.409959
  H     -1.617695    1.941527    0.430683
  H      0.669431    2.957484    0.590126
  H      0.188061   -1.930534   -0.327443
  H      3.455547   -0.530621   -0.084326
  H      6.049997    4.763271   -0.669123
  H      2.949317    3.970141   -3.585935
  H      1.972992    2.255024   -2.073772

 Multiplicity           Mult            ....    1
 Number of Electrons    NEL             ....  146
 Basis Dimension        Dim             ....  440

ORBITAL ENERGIES
----------------

  NO   OCC          E(Eh)            E(eV)
   0   2.0000    -100.709733     -2740.4511
   1   2.0000    -100.705159     -2740.3267
   2   2.0000    -100.703287     -2740.2758
   3   2.0000     -18.818081      -512.0660
   4   2.0000     -18.794457      -511.4232
   5   2.0000      -9.975660      -271.4515
   6   2.0000      -9.967676      -271.2342
   7   2.0000      -9.965424      -271.1730
   8   2.0000      -9.961143      -271.0565
   9   2.0000      -9.960314      -271.0339
  10   2.0000      -9.959309      -271.0066
  11   2.0000      -9.916352      -269.8377
  12   2.0000      -9.911057      -269.6936
  13   2.0000      -9.910707      -269.6841
  14   2.0000      -9.908739      -269.6305
  15   2.0000      -9.905418      -269.5401
  16   2.0000      -9.903109      -269.4773
  17   2.0000      -9.202709      -250.4185
  18   2.0000      -9.198177      -250.2951
  19   2.0000      -9.196343      -250.2452
  20   2.0000      -7.029737      -191.2889
  21   2.0000      -7.025040      -191.1611
  22   2.0000      -7.023130      -191.1091
  23   2.0000      -7.018461      -190.9820
  24   2.0000      -7.017735      -190.9623
  25   2.0000      -7.013890      -190.8576
  26   2.0000      -7.013429      -190.8451
  27   2.0000      -7.012118      -190.8094
  28   2.0000      -7.011607      -190.7955
  29   2.0000      -1.022999       -27.8372
  30   2.0000      -0.989407       -26.9231
  31   2.0000      -0.839671       -22.8486
  32   2.0000      -0.824067       -22.4240
  33   2.0000      -0.810022       -22.0418
  34   2.0000      -0.775009       -21.0891
  35   2.0000      -0.764448       -20.8017
  36   2.0000      -0.702020       -19.1029
  37   2.0000      -0.697760       -18.9870
  38   2.0000      -0.692001       -18.8303
  39   2.0000      -0.657901       -17.9024
  40   2.0000      -0.597511       -16.2591
  41   2.0000      -0.578616       -15.7450
  42   2.0000      -0.571966       -15.5640
  43   2.0000      -0.552364       -15.0306
  44   2.0000      -0.523620       -14.2484
  45   2.0000      -0.494674       -13.4608
  46   2.0000      -0.469108       -12.7651
  47   2.0000      -0.463966       -12.6252
  48   2.0000      -0.454541       -12.3687
  49   2.0000      -0.435109       -11.8399
  50   2.0000      -0.420316       -11.4374
  51   2.0000      -0.408654       -11.1200
  52   2.0000      -0.404939       -11.0190
  53   2.0000      -0.399925       -10.8825
  54   2.0000      -0.394131       -10.7249
  55   2.0000      -0.378787       -10.3073
  56   2.0000      -0.372057       -10.1242
  57   2.0000      -0.364559        -9.9202
  58   2.0000      -0.360785        -9.8175
  59   2.0000      -0.347951        -9.4682
  60   2.0000      -0.342886        -9.3304
  61   2.0000      -0.334605        -9.1051
  62   2.0000      -0.329750        -8.9729
  63   2.0000      -0.319111        -8.6835
  64   2.0000      -0.296033        -8.0555
  65   2.0000      -0.291163        -7.9229
  66   2.0000      -0.285225        -7.7614
  67   2.0000      -0.284752        -7.7485
  68   2.0000      -0.283421        -7.7123
  69   2.0000      -0.244480        -6.6527
  70   2.0000      -0.236193        -6.4271
  71   2.0000      -0.221596        -6.0299
  72   2.0000      -0.208537        -5.6746
  73   0.0000      -0.071211        -1.9378
  74   0.0000      -0.062093        -1.6896
  75   0.0000      -0.055774        -1.5177
  76   0.0000      -0.046691        -1.2705
  77   0.0000      -0.039698        -1.0802

MULLIKEN ATOMIC CHARGES
-----------------------
   0 C :   -0.681289
   1 C :   -0.001676
   2 C :   -0.164091
   3 C :   -0.493220
   4 C :   -0.287975
   5 C :    0.775849
   6 Cl:    0.452059
   7 O :   -0.244372
   8 O :    0.078361
   9 C :   -2.699686
  10 C :    1.116048
  11 C :   -0.479298
  12 C :    1.078972
  13 C :   -0.464249
  14 C :   -0.335250
  15 Cl:    0.444554
  16 Cl:    0.405475
  17 H :    0.188885
  18 H :    0.187035
  19 H :    0.188732
  20 H :    0.313338
  21 H :    0.209226
  22 H :    0.193551
  23 H :    0.219023
Sum of atomic charges:    0.0000000

LOEWDIN ATOMIC CHARGES
----------------------
   0 C :   -0.101574
   1 C :   -0.033349
   2 C :   -0.067228
   3 C :   -0.022714
   4 C :   -0.085362
   5 C :   -0.243471
   6 Cl:    0.205878
   7 O :   -0.060154
   8 O :   -0.113710
   9 C :   -0.061226
  10 C :   -0.236603
  11 C :   -0.098930
  12 C :   -0.255633
  13 C :   -0.072609
  14 C :   -0.046066
  15 Cl:    0.212188
  16 Cl:    0.259686
  17 H :    0.101809
  18 H :    0.116075
  19 H :    0.113886
  20 H :    0.152478
  21 H :    0.113973
  22 H :    0.104757
  23 H :    0.117898

  Mayer bond orders larger than 0.100000
B(  0-C ,  1-C ) :   1.2483 B(  0-C ,  3-C ) :  -0.1052 B(  0-C ,  4-C ) :   0.3862
B(  0-C ,  5-C ) :   1.2888 B(  0-C ,  6-Cl) :   0.6211 B(  0-C ,  9-C ) :  -0.1532
B(  0-C , 10-C ) :   0.1457 B(  0-C , 11-C ) :   0.1008 B(  0-C , 13-C ) :   0.1567
B(  0-C , 14-C ) :  -0.1704 B(  0-C , 17-H ) :   0.9497 B(  1-C ,  2-C ) :   1.2155
B(  1-C ,  3-C ) :   0.8957 B(  1-C ,  5-C ) :  -0.1265 B(  1-C ,  6-Cl) :   0.1962
B(  1-C ,  8-O ) :  -0.1312 B(  1-C ,  9-C ) :   0.4051 B(  1-C , 11-C ) :  -0.2558
B(  1-C , 13-C ) :  -0.1146 B(  1-C , 14-C ) :   0.1152 B(  1-C , 18-H ) :   0.9686
B(  2-C ,  3-C ) :   1.0835 B(  2-C ,  5-C ) :   0.2594 B(  2-C ,  7-O ) :  -0.5460
B(  2-C ,  8-O ) :   1.9113 B(  2-C , 10-C ) :   0.1544 B(  2-C , 11-C ) :   0.1927
B(  2-C , 13-C ) :   0.2085 B(  2-C , 14-C ) :  -0.4174 B(  2-C , 16-Cl) :  -0.1788
B(  2-C , 20-H ) :  -0.1627 B(  2-C , 23-H ) :   0.1325 B(  3-C ,  4-C ) :   1.0681
B(  3-C ,  5-C ) :  -0.2273 B(  3-C ,  6-Cl) :   0.1790 B(  3-C ,  7-O ) :   1.9928
B(  3-C ,  8-O ) :  -0.7351 B(  3-C ,  9-C ) :   0.1355 B(  3-C , 10-C ) :  -0.3869
B(  3-C , 13-C ) :  -0.2914 B(  3-C , 14-C ) :   0.3620 B(  3-C , 16-Cl) :   0.1073
B(  3-C , 20-H ) :   0.1869 B(  4-C ,  5-C ) :   1.6640 B(  4-C ,  6-Cl) :   0.5461
B(  4-C ,  7-O ) :  -0.3944 B(  4-C ,  8-O ) :  -0.1392 B(  4-C ,  9-C ) :  -0.3513
B(  4-C , 11-C ) :   0.1373 B(  4-C , 13-C ) :   0.1286 B(  4-C , 19-H ) :   0.8675
B(  5-C ,  6-Cl) :  -0.7246 B(  5-C , 14-C ) :   0.1963 B(  7-O ,  9-C ) :   0.2318
B(  7-O , 14-C ) :  -0.1721 B(  7-O , 20-H ) :   0.8456 B(  8-O ,  9-C ) :   1.6159
B(  8-O , 10-C ) :  -0.7349 B(  9-C , 10-C ) :   2.5318 B(  9-C , 11-C ) :  -1.5982
B(  9-C , 12-C ) :  -0.6211 B(  9-C , 13-C ) :  -0.5407 B(  9-C , 14-C ) :   1.7079
B(  9-C , 16-Cl) :   1.4521 B(  9-C , 21-H ) :   0.2030 B( 10-C , 11-C ) :   3.1354
B( 10-C , 13-C ) :   0.3991 B( 10-C , 14-C ) :   1.4229 B( 10-C , 15-Cl) :   0.2142
B( 10-C , 16-Cl) :  -1.3304 B( 11-C , 12-C ) :   1.1359 B( 11-C , 14-C ) :  -0.8615
B( 11-C , 15-Cl) :   0.6732 B( 11-C , 16-Cl) :   0.4625 B( 11-C , 21-H ) :   0.9116
B( 12-C , 13-C ) :   1.2784 B( 12-C , 15-Cl) :  -0.9173 B( 12-C , 16-Cl) :   0.1317
B( 13-C , 14-C ) :   1.3873 B( 13-C , 15-Cl) :   0.6226 B( 13-C , 22-H ) :   0.9438
B( 13-C , 23-H ) :  -0.1344 B( 14-C , 15-Cl) :   0.1326 B( 14-C , 16-Cl) :   0.3184
B( 14-C , 23-H ) :   1.0023

FINAL SINGLE POINT ENERGY     -1991.448760996081

DIPOLE MOMENT
-------------

Method             : SCF
Type of density    : Electron Density
Multiplicity       :   1
Irrep              :   0
Energy             : -1991.4487609960810914 Eh
Relativity type    :
Basis              : AO
                                X                 Y                 Z
Electronic contribution:      4.396498888       3.656334501       0.973507172
Nuclear contribution   :     -4.363294518      -3.161049025      -1.315619735
                        -----------------------------------------
Total Dipole Moment    :      0.033204370       0.495285476      -0.342112562
                        -----------------------------------------
Magnitude (a.u.)       :      0.602869172
Magnitude (Debye)      :      1.532371655

Rotational constants in cm-1:             0.021604             0.004932             0.004360
Rotational constants in MHz :           647.672056           147.872018           130.695281

                             ****ORCA TERMINATED NORMALLY****
TOTAL RUN TIME: 0 days 0 hours 16 minutes 21 seconds 740 msec
