                         Program Version 6.0.0  -   RELEASE   -
|  1> # ORCA input file
|  2> #
|  3> !PBE 6-311+G** Opt CPCM(WATER)
|  4> * xyz 0 1
|  5>    H        1.09662        -0.20425         0.32676
|  6>    C        2.13797        -0.11108        -0.01052
|  7>    C        2.12649         0.62804        -1.35353
|  8>    C        2.82666         0.75101         1.05036
|  9>    O        3.42837         0.07530         2.05584
| 10>    O        2.79236         1.97380         1.05318
| 11>    C        2.71761        -1.51246        -0.17817
| 12>    C        1.93400        -2.64563         0.11349
| 13>    C        2.46764        -3.93628        -0.02637
| 14>    C        3.77114        -4.09904        -0.50532
| 15>    C        4.55448        -2.98406        -0.79480
| 16>    C        4.03583        -1.70072        -0.62371
| 17>    C        1.68733        -5.16375         0.28429
| 18>    O        1.87299        -6.17087        -0.39524
| 19>    C        0.70964        -5.21669         1.40278
| 20>    C        0.85415        -4.43205         2.55380
| 21>    C       -0.08941        -4.51477         3.57938
| 22>    C       -1.16344        -5.39791         3.47203
| 23>    C       -1.29213        -6.20776         2.34434
| 24>    C       -0.35568        -6.12155         1.31302
| 25>    H        1.60784         1.58944        -1.26613
| 26>    H        1.61662         0.04215        -2.12585
| 27>    H        3.14163         0.84360        -1.70681
| 28>    H        3.41398        -0.89696         1.96534
| 29>    H        0.90004        -2.51911         0.43007
| 30>    H        4.17798        -5.09810        -0.65507
| 31>    H        5.56968        -3.11822        -1.16231
| 32>    H        4.67199        -0.84709        -0.85704
| 33>    H        1.70284        -3.76706         2.68065
| 34>    H        0.01844        -3.89919         4.46945
| 35>    H       -1.89326        -5.46596         4.27487
| 36>    H       -2.11824        -6.91083         2.26952
| 37>    H       -0.45599        -6.76552         0.44094
| 38> *
| 39>
| 40>                          ****END OF INPUT****
 Total Charge           Charge          ....    0
 Multiplicity           Mult            ....    1
 Number of Electrons    NEL             ....  134
FINAL SINGLE POINT ENERGY      -843.047706535228
FINAL SINGLE POINT ENERGY      -843.050702222891
FINAL SINGLE POINT ENERGY      -843.050994664997
FINAL SINGLE POINT ENERGY      -843.051368978091
FINAL SINGLE POINT ENERGY      -843.051485317562
FINAL SINGLE POINT ENERGY      -843.051557262182
FINAL SINGLE POINT ENERGY      -843.051607752795
FINAL SINGLE POINT ENERGY      -843.051662591805
FINAL SINGLE POINT ENERGY      -843.051700501476
FINAL SINGLE POINT ENERGY      -843.051727757266
FINAL SINGLE POINT ENERGY      -843.051741016797
FINAL SINGLE POINT ENERGY      -843.051704640375
FINAL SINGLE POINT ENERGY      -843.051765916421
FINAL SINGLE POINT ENERGY      -843.051769067326
FINAL SINGLE POINT ENERGY      -843.051771029773
                    ***********************HURRAY********************

CARTESIAN COORDINATES (ANGSTROEM)
---------------------------------
  H      1.191514   -0.258139    0.543194
  C      2.159039   -0.139079    0.020251
  C      1.905449    0.533252   -1.336177
  C      2.995163    0.754346    0.945486
  O      3.330173    0.224548    2.152132
  O      3.344247    1.893013    0.686851
  C      2.770693   -1.529198   -0.123011
  C      2.022331   -2.671726    0.198377
  C      2.557587   -3.962131    0.016906
  C      3.864210   -4.102638   -0.487635
  C      4.625287   -2.969471   -0.784241
  C      4.081666   -1.690795   -0.609113
  C      1.747659   -5.196587    0.272193
  O      1.927165   -6.207752   -0.421579
  C      0.725267   -5.202756    1.363976
  C      0.892391   -4.457793    2.548944
  C     -0.051142   -4.551492    3.578315
  C     -1.179583   -5.367824    3.425242
  C     -1.355959   -6.108543    2.245882
  C     -0.403024   -6.037656    1.227902
  H      1.418109    1.509135   -1.201235
  H      1.250125   -0.104528   -1.946779
  H      2.847263    0.688444   -1.883203
  H      3.009216   -0.698051    2.222856
  H      0.999310   -2.552310    0.564485
  H      4.275884   -5.104047   -0.630948
  H      5.646742   -3.079172   -1.155808
  H      4.683131   -0.810492   -0.854936
  H      1.775274   -3.828239    2.679567
  H      0.095019   -3.985489    4.501262
  H     -1.921442   -5.429783    4.225227
  H     -2.237404   -6.742645    2.124416
  H     -0.525187   -6.617971    0.310440

 Multiplicity           Mult            ....    1
 Number of Electrons    NEL             ....  134
 Basis Dimension        Dim             ....  502

ORBITAL ENERGIES
----------------

  NO   OCC          E(Eh)            E(eV)
   0   2.0000     -18.801215      -511.6071
   1   2.0000     -18.748457      -510.1714
   2   2.0000     -18.746529      -510.1190
   3   2.0000     -10.020311      -272.6665
   4   2.0000      -9.981127      -271.6003
   5   2.0000      -9.919022      -269.9103
   6   2.0000      -9.915835      -269.8236
   7   2.0000      -9.911342      -269.7013
   8   2.0000      -9.909113      -269.6407
   9   2.0000      -9.905903      -269.5533
  10   2.0000      -9.903648      -269.4920
  11   2.0000      -9.902849      -269.4702
  12   2.0000      -9.902436      -269.4590
  13   2.0000      -9.900624      -269.4097
  14   2.0000      -9.900237      -269.3991
  15   2.0000      -9.900172      -269.3974
  16   2.0000      -9.897474      -269.3240
  17   2.0000      -9.897315      -269.3196
  18   2.0000      -9.878630      -268.8112
  19   2.0000      -1.022340       -27.8193
  20   2.0000      -0.960978       -26.1495
  21   2.0000      -0.944384       -25.6980
  22   2.0000      -0.803071       -21.8527
  23   2.0000      -0.792127       -21.5549
  24   2.0000      -0.743226       -20.2242
  25   2.0000      -0.712338       -19.3837
  26   2.0000      -0.690019       -18.7764
  27   2.0000      -0.685945       -18.6655
  28   2.0000      -0.674085       -18.3428
  29   2.0000      -0.604200       -16.4411
  30   2.0000      -0.600621       -16.3437
  31   2.0000      -0.566122       -15.4050
  32   2.0000      -0.565156       -15.3787
  33   2.0000      -0.556320       -15.1382
  34   2.0000      -0.542698       -14.7676
  35   2.0000      -0.510710       -13.8971
  36   2.0000      -0.486275       -13.2322
  37   2.0000      -0.463028       -12.5996
  38   2.0000      -0.455555       -12.3963
  39   2.0000      -0.436758       -11.8848
  40   2.0000      -0.427072       -11.6212
  41   2.0000      -0.419588       -11.4176
  42   2.0000      -0.418288       -11.3822
  43   2.0000      -0.410879       -11.1806
  44   2.0000      -0.399439       -10.8693
  45   2.0000      -0.392666       -10.6850
  46   2.0000      -0.387547       -10.5457
  47   2.0000      -0.383504       -10.4357
  48   2.0000      -0.380797       -10.3620
  49   2.0000      -0.375157       -10.2086
  50   2.0000      -0.364388        -9.9155
  51   2.0000      -0.356646        -9.7048
  52   2.0000      -0.341512        -9.2930
  53   2.0000      -0.332331        -9.0432
  54   2.0000      -0.329519        -8.9667
  55   2.0000      -0.322497        -8.7756
  56   2.0000      -0.320074        -8.7097
  57   2.0000      -0.317841        -8.6489
  58   2.0000      -0.307913        -8.3787
  59   2.0000      -0.304343        -8.2816
  60   2.0000      -0.292343        -7.9551
  61   2.0000      -0.255870        -6.9626
  62   2.0000      -0.248529        -6.7628
  63   2.0000      -0.245929        -6.6921
  64   2.0000      -0.243301        -6.6206
  65   2.0000      -0.236048        -6.4232
  66   2.0000      -0.222740        -6.0611
  67   0.0000      -0.111721        -3.0401
  68   0.0000      -0.065571        -1.7843
  69   0.0000      -0.062820        -1.7094
  70   0.0000      -0.053815        -1.4644
  71   0.0000      -0.046070        -1.2536

MULLIKEN ATOMIC CHARGES
-----------------------
   0 H :    0.230212
   1 C :   -0.109433
   2 C :   -0.756438
   3 C :   -0.105968
   4 O :   -0.158842
   5 O :   -0.310380
   6 C :    1.510082
   7 C :   -2.814967
   8 C :    1.817017
   9 C :    0.272660
  10 C :   -0.336986
  11 C :   -0.205520
  12 C :   -1.318503
  13 O :   -0.245489
  14 C :    1.765261
  15 C :   -1.043012
  16 C :   -0.378831
  17 C :   -0.166216
  18 C :   -0.213472
  19 C :    0.057766
  20 H :    0.189700
  21 H :    0.182349
  22 H :    0.208104
  23 H :    0.323264
  24 H :    0.189798
  25 H :    0.172975
  26 H :    0.177718
  27 H :    0.184492
  28 H :    0.192191
  29 H :    0.172664
  30 H :    0.175715
  31 H :    0.174486
  32 H :    0.167603
Sum of atomic charges:    0.0000000

LOEWDIN ATOMIC CHARGES
----------------------
   0 H :    0.124689
   1 C :   -0.128085
   2 C :   -0.098405
   3 C :   -0.024135
   4 O :   -0.042809
   5 O :   -0.199321
   6 C :   -0.117599
   7 C :   -0.035553
   8 C :   -0.104474
   9 C :   -0.022374
  10 C :   -0.048440
  11 C :   -0.036114
  12 C :    0.008026
  13 O :   -0.208846
  14 C :   -0.115164
  15 C :   -0.043638
  16 C :   -0.064441
  17 C :   -0.050465
  18 C :   -0.064148
  19 C :   -0.030274
  20 H :    0.079146
  21 H :    0.081928
  22 H :    0.086150
  23 H :    0.155569
  24 H :    0.115742
  25 H :    0.103425
  26 H :    0.092493
  27 H :    0.108059
  28 H :    0.105757
  29 H :    0.090716
  30 H :    0.090116
  31 H :    0.090193
  32 H :    0.102277

  Mayer bond orders larger than 0.100000
B(  0-H ,  1-C ) :   1.0982 B(  0-H ,  6-C ) :  -0.5532 B(  0-H ,  7-C ) :   0.3864
B(  1-C ,  2-C ) :   0.9499 B(  1-C ,  3-C ) :   0.8654 B(  1-C ,  4-O ) :  -0.3126
B(  1-C ,  6-C ) :  -0.2182 B(  1-C ,  7-C ) :   0.4850 B(  2-C ,  3-C ) :  -0.1011
B(  2-C ,  6-C ) :  -0.7449 B(  2-C ,  7-C ) :   0.4559 B(  2-C , 11-C ) :   0.2655
B(  2-C , 20-H ) :   0.9678 B(  2-C , 21-H ) :   0.9993 B(  2-C , 22-H ) :   0.9542
B(  3-C ,  4-O ) :   1.3948 B(  3-C ,  5-O ) :   2.0707 B(  3-C ,  6-C ) :  -0.4090
B(  3-C ,  9-C ) :   0.1154 B(  3-C , 11-C ) :   0.3937 B(  4-O ,  6-C ) :   0.5919
B(  4-O ,  7-C ) :  -0.1352 B(  4-O , 11-C ) :  -0.1618 B(  4-O , 23-H ) :   0.8478
B(  5-O ,  7-C ) :   0.1238 B(  5-O , 11-C ) :  -0.2122 B(  6-C ,  7-C ) :  -0.3020
B(  6-C ,  8-C ) :   0.6765 B(  6-C ,  9-C ) :  -0.1999 B(  6-C , 10-C ) :   0.5184
B(  6-C , 11-C ) :   1.2314 B(  6-C , 12-C ) :  -0.2816 B(  6-C , 14-C ) :   0.8183
B(  6-C , 16-C ) :   0.5625 B(  6-C , 17-C ) :  -0.1575 B(  6-C , 18-C ) :   0.2918
B(  6-C , 19-C ) :  -1.5448 B(  6-C , 21-H ) :  -0.1209 B(  6-C , 22-H ) :  -0.1275
B(  6-C , 23-H ) :   0.1551 B(  7-C ,  8-C ) :  -0.2769 B(  7-C ,  9-C ) :   0.7683
B(  7-C , 10-C ) :  -0.5780 B(  7-C , 11-C ) :   1.1749 B(  7-C , 12-C ) :   2.5278
B(  7-C , 14-C ) :  -0.9658 B(  7-C , 15-C ) :   2.1914 B(  7-C , 17-C ) :   0.2278
B(  7-C , 18-C ) :  -0.4915 B(  7-C , 19-C ) :  -0.2369 B(  7-C , 21-H ) :   0.1163
B(  7-C , 24-H ) :   0.8037 B(  7-C , 27-H ) :   0.1137 B(  8-C ,  9-C ) :   1.6007
B(  8-C , 10-C ) :   0.1167 B(  8-C , 11-C ) :   0.1086 B(  8-C , 12-C ) :  -0.8667
B(  8-C , 14-C ) :   0.7727 B(  8-C , 15-C ) :  -0.9468 B(  8-C , 16-C ) :   0.3901
B(  8-C , 17-C ) :  -0.2082 B(  8-C , 18-C ) :   0.2832 B(  8-C , 19-C ) :  -0.7745
B(  9-C , 10-C ) :   1.0753 B(  9-C , 11-C ) :  -0.6727 B(  9-C , 12-C ) :  -0.7378
B(  9-C , 14-C ) :  -0.9914 B(  9-C , 15-C ) :  -0.8048 B(  9-C , 16-C ) :  -1.0061
B(  9-C , 17-C ) :   0.2069 B(  9-C , 18-C ) :  -0.1614 B(  9-C , 19-C ) :   2.3392
B(  9-C , 25-H ) :   0.9088 B(  9-C , 26-H ) :  -0.1144 B( 10-C , 11-C ) :   1.1618
B( 10-C , 14-C ) :   0.3560 B( 10-C , 15-C ) :  -0.2189 B( 10-C , 16-C ) :   0.2797
B( 10-C , 17-C ) :  -0.1118 B( 10-C , 18-C ) :   0.1219 B( 10-C , 19-C ) :  -0.4341
B( 10-C , 26-H ) :   1.0552 B( 11-C , 14-C ) :  -0.2088 B( 11-C , 15-C ) :   0.1807
B( 11-C , 16-C ) :  -0.1762 B( 11-C , 19-C ) :   0.2371 B( 11-C , 27-H ) :   0.8541
B( 12-C , 13-O ) :   1.8856 B( 12-C , 14-C ) :  -0.4295 B( 12-C , 15-C ) :   1.6660
B( 12-C , 16-C ) :   0.1849 B( 12-C , 18-C ) :  -0.1701 B( 12-C , 19-C ) :  -0.1867
B( 12-C , 32-H ) :   0.1657 B( 14-C , 15-C ) :   0.7721 B( 14-C , 16-C ) :  -0.1332
B( 14-C , 19-C ) :   1.5713 B( 14-C , 32-H ) :  -0.1399 B( 15-C , 16-C ) :   1.3335
B( 15-C , 19-C ) :  -0.1266 B( 15-C , 28-H ) :   0.9666 B( 16-C , 17-C ) :   1.3648
B( 16-C , 18-C ) :   0.1015 B( 16-C , 29-H ) :   1.0042 B( 17-C , 18-C ) :   1.4328
B( 17-C , 19-C ) :   0.1741 B( 17-C , 30-H ) :   0.9554 B( 18-C , 19-C ) :   1.2730
B( 18-C , 31-H ) :   1.0131 B( 19-C , 31-H ) :  -0.1194 B( 19-C , 32-H ) :   0.9542

FINAL SINGLE POINT ENERGY      -843.051771629009

DIPOLE MOMENT
-------------

Method             : SCF
Type of density    : Electron Density
Multiplicity       :   1
Irrep              :   0
Energy             :  -843.0517716290091812 Eh
Relativity type    :
Basis              : AO
                                X                 Y                 Z
Electronic contribution:      2.832401022      -3.884489557       2.157456631
Nuclear contribution   :     -4.094438548       3.345177384      -1.336863317
                        -----------------------------------------
Total Dipole Moment    :     -1.262037526      -0.539312173       0.820593313
                        -----------------------------------------
Magnitude (a.u.)       :      1.599052758
Magnitude (Debye)      :      4.064469102

Rotational constants in cm-1:             0.020712             0.007065             0.005905
Rotational constants in MHz :           620.931482           211.799019           177.031984

                             ****ORCA TERMINATED NORMALLY****
TOTAL RUN TIME: 0 days 0 hours 24 minutes 0 seconds 217 msec
