                         Program Version 6.0.0  -   RELEASE   -
|  1> # ORCA input file
|  2> #
|  3> !PBE STO-3G Opt CPCM(WATER)
|  4> * xyz 0 1
|  5>    C        2.95021        -0.38900         1.26274
|  6>    C        2.52045        -1.27848         0.09338
|  7>    C        0.99553        -1.40741         0.07675
|  8>    C        3.03305        -0.73504        -1.25720
|  9>    C        4.54216        -0.63179        -1.32375
| 10>    C        5.34421        -1.77303        -1.21037
| 11>    C        6.73846        -1.66838        -1.22843
| 12>    C        7.36134        -0.42186        -1.38715
| 13>    C        6.55228         0.71875        -1.50569
| 14>    C        5.15995         0.61450        -1.47446
| 15>    C        8.87998        -0.34092        -1.48484
| 16>    C        9.28189         0.24772        -2.84195
| 17>    C        9.61173         0.40524        -0.37163
| 18>    O        8.87745         0.76600         0.70549
| 19>    O       10.81195         0.64384        -0.41318
| 20>    H        2.59304        -0.80141         2.21203
| 21>    H        2.55000         0.62512         1.15790
| 22>    H        4.04024        -0.31777         1.33342
| 23>    H        2.93334        -2.27988         0.25826
| 24>    H        0.51345        -0.43617        -0.07745
| 25>    H        0.63424        -1.81602         1.02656
| 26>    H        0.66784        -2.08146        -0.72144
| 27>    H        2.58341         0.24756        -1.45114
| 28>    H        2.69896        -1.38702        -2.07513
| 29>    H        4.88886        -2.75489        -1.10326
| 30>    H        7.32748        -2.57887        -1.13792
| 31>    H        6.99599         1.70432        -1.63567
| 32>    H        4.56054         1.51848        -1.56984
| 33>    H        9.27510        -1.36482        -1.43749
| 34>    H        8.93076         1.27903        -2.95691
| 35>    H        8.86386        -0.34431        -3.66356
| 36>    H       10.37078         0.26519        -2.96132
| 37>    H        7.93807         0.51129         0.66734
| 38> *
| 39>
| 40>                          ****END OF INPUT****
 Total Charge           Charge          ....    0
 Multiplicity           Mult            ....    1
 Number of Electrons    NEL             ....  112
FINAL SINGLE POINT ENERGY      -647.672545118158
FINAL SINGLE POINT ENERGY      -647.695472507806
FINAL SINGLE POINT ENERGY      -647.698571525630
FINAL SINGLE POINT ENERGY      -647.699161832075
FINAL SINGLE POINT ENERGY      -647.699348808870
FINAL SINGLE POINT ENERGY      -647.699418680750
FINAL SINGLE POINT ENERGY      -647.699503013281
FINAL SINGLE POINT ENERGY      -647.699530095761
FINAL SINGLE POINT ENERGY      -647.699549166326
FINAL SINGLE POINT ENERGY      -647.699556945609
FINAL SINGLE POINT ENERGY      -647.699561460688
FINAL SINGLE POINT ENERGY      -647.699566454897
FINAL SINGLE POINT ENERGY      -647.699567091645
                    ***********************HURRAY********************

CARTESIAN COORDINATES (ANGSTROEM)
---------------------------------
  C      2.855154   -0.043335    1.224287
  C      2.512225   -1.186916    0.220737
  C      0.979019   -1.478788    0.214656
  C      2.999322   -0.841120   -1.237737
  C      4.530744   -0.705663   -1.346760
  C      5.363227   -1.857876   -1.319002
  C      6.766546   -1.741499   -1.406703
  C      7.390080   -0.466374   -1.523982
  C      6.554959    0.687814   -1.552254
  C      5.151774    0.567428   -1.463619
  C      8.928062   -0.356362   -1.619920
  C      9.424054    0.485216   -2.837600
  C      9.577522    0.236677   -0.270590
  O      8.735352    0.182422    0.877814
  O     10.748475    0.693816   -0.181826
  H      2.533540   -0.319090    2.246166
  H      2.338788    0.891958    0.936673
  H      3.944027    0.149766    1.239110
  H      3.043321   -2.109642    0.544758
  H      0.415852   -0.585068   -0.114340
  H      0.634832   -1.753268    1.229659
  H      0.743594   -2.312775   -0.473042
  H      2.520968    0.105095   -1.563664
  H      2.656603   -1.649759   -1.917860
  H      4.902856   -2.858657   -1.234371
  H      7.395726   -2.649868   -1.389337
  H      7.011261    1.689757   -1.642662
  H      4.523602    1.475848   -1.491018
  H      9.335719   -1.388711   -1.718761
  H      8.983540    1.499187   -2.824406
  H      9.148734   -0.009325   -3.787939
  H     10.525627    0.581099   -2.788049
  H      7.851494   -0.193478    0.475675

 Multiplicity           Mult            ....    1
 Number of Electrons    NEL             ....  112
 Basis Dimension        Dim             ....   93

ORBITAL ENERGIES
----------------

  NO   OCC          E(Eh)            E(eV)
   0   2.0000     -18.548033      -504.7176
   1   2.0000     -18.481460      -502.9061
   2   2.0000      -9.786855      -266.3139
   3   2.0000      -9.740487      -265.0521
   4   2.0000      -9.726478      -264.6709
   5   2.0000      -9.724090      -264.6059
   6   2.0000      -9.722511      -264.5630
   7   2.0000      -9.720371      -264.5047
   8   2.0000      -9.714203      -264.3369
   9   2.0000      -9.713783      -264.3255
  10   2.0000      -9.713626      -264.3212
  11   2.0000      -9.711253      -264.2566
  12   2.0000      -9.710841      -264.2454
  13   2.0000      -9.702691      -264.0236
  14   2.0000      -9.701455      -263.9900
  15   2.0000      -0.909161       -24.7395
  16   2.0000      -0.840925       -22.8827
  17   2.0000      -0.732635       -19.9360
  18   2.0000      -0.689092       -18.7512
  19   2.0000      -0.664740       -18.0885
  20   2.0000      -0.626643       -17.0518
  21   2.0000      -0.619886       -16.8680
  22   2.0000      -0.571928       -15.5630
  23   2.0000      -0.566619       -15.4185
  24   2.0000      -0.529729       -14.4147
  25   2.0000      -0.501209       -13.6386
  26   2.0000      -0.478024       -13.0077
  27   2.0000      -0.458366       -12.4728
  28   2.0000      -0.436533       -11.8787
  29   2.0000      -0.405065       -11.0224
  30   2.0000      -0.389199       -10.5906
  31   2.0000      -0.374592       -10.1932
  32   2.0000      -0.359926        -9.7941
  33   2.0000      -0.347621        -9.4592
  34   2.0000      -0.341856        -9.3024
  35   2.0000      -0.337908        -9.1950
  36   2.0000      -0.324164        -8.8210
  37   2.0000      -0.315023        -8.5722
  38   2.0000      -0.310098        -8.4382
  39   2.0000      -0.295406        -8.0384
  40   2.0000      -0.295053        -8.0288
  41   2.0000      -0.284985        -7.7548
  42   2.0000      -0.281046        -7.6477
  43   2.0000      -0.272620        -7.4184
  44   2.0000      -0.260870        -7.0986
  45   2.0000      -0.251704        -6.8492
  46   2.0000      -0.244377        -6.6498
  47   2.0000      -0.239196        -6.5088
  48   2.0000      -0.235837        -6.4175
  49   2.0000      -0.233889        -6.3645
  50   2.0000      -0.226075        -6.1518
  51   2.0000      -0.210810        -5.7364
  52   2.0000      -0.164417        -4.4740
  53   2.0000      -0.156039        -4.2460
  54   2.0000      -0.129589        -3.5263
  55   2.0000      -0.090639        -2.4664
  56   0.0000       0.045310         1.2329
  57   0.0000       0.054782         1.4907
  58   0.0000       0.075360         2.0507
  59   0.0000       0.183151         4.9838
  60   0.0000       0.242504         6.5989

MULLIKEN ATOMIC CHARGES
-----------------------
   0 C :   -0.236820
   1 C :   -0.048034
   2 C :   -0.235755
   3 C :   -0.148824
   4 C :   -0.002754
   5 C :   -0.094084
   6 C :   -0.093004
   7 C :   -0.032508
   8 C :   -0.095237
   9 C :   -0.093086
  10 C :   -0.085381
  11 C :   -0.233404
  12 C :    0.164301
  13 O :   -0.201549
  14 O :   -0.213432
  15 H :    0.078171
  16 H :    0.076944
  17 H :    0.078782
  18 H :    0.075458
  19 H :    0.077659
  20 H :    0.078896
  21 H :    0.078252
  22 H :    0.083132
  23 H :    0.085591
  24 H :    0.090967
  25 H :    0.092090
  26 H :    0.092865
  27 H :    0.090935
  28 H :    0.096371
  29 H :    0.085435
  30 H :    0.086471
  31 H :    0.088111
  32 H :    0.213441
Sum of atomic charges:    0.0000000

LOEWDIN ATOMIC CHARGES
----------------------
   0 C :   -0.136242
   1 C :   -0.001444
   2 C :   -0.134634
   3 C :   -0.077550
   4 C :    0.005869
   5 C :   -0.058827
   6 C :   -0.057167
   7 C :   -0.023675
   8 C :   -0.058737
   9 C :   -0.058067
  10 C :   -0.047693
  11 C :   -0.128940
  12 C :    0.096080
  13 O :   -0.121751
  14 O :   -0.166746
  15 H :    0.043327
  16 H :    0.042169
  17 H :    0.043828
  18 H :    0.037027
  19 H :    0.042653
  20 H :    0.043899
  21 H :    0.043238
  22 H :    0.045595
  23 H :    0.048177
  24 H :    0.052240
  25 H :    0.053044
  26 H :    0.053878
  27 H :    0.052162
  28 H :    0.056236
  29 H :    0.049019
  30 H :    0.049674
  31 H :    0.051319
  32 H :    0.162039

  Mayer bond orders larger than 0.100000
B(  0-C ,  1-C ) :   0.9931 B(  0-C , 15-H ) :   0.9753 B(  0-C , 16-H ) :   0.9757
B(  0-C , 17-H ) :   0.9736 B(  1-C ,  2-C ) :   0.9902 B(  1-C ,  3-C ) :   0.9610
B(  1-C , 18-H ) :   0.9557 B(  2-C , 19-H ) :   0.9758 B(  2-C , 20-H ) :   0.9749
B(  2-C , 21-H ) :   0.9753 B(  3-C ,  4-C ) :   0.9943 B(  3-C , 22-H ) :   0.9630
B(  3-C , 23-H ) :   0.9578 B(  4-C ,  5-C ) :   1.3943 B(  4-C ,  7-C ) :   0.1063
B(  4-C ,  9-C ) :   1.3947 B(  5-C ,  6-C ) :   1.4445 B(  5-C ,  8-C ) :   0.1096
B(  5-C , 24-H ) :   0.9558 B(  6-C ,  7-C ) :   1.3751 B(  6-C ,  9-C ) :   0.1065
B(  6-C , 25-H ) :   0.9550 B(  7-C ,  8-C ) :   1.3725 B(  7-C , 10-C ) :   0.9845
B(  8-C ,  9-C ) :   1.4438 B(  8-C , 26-H ) :   0.9543 B(  9-C , 27-H ) :   0.9557
B( 10-C , 11-C ) :   0.9824 B( 10-C , 12-C ) :   0.8583 B( 10-C , 28-H ) :   0.9439
B( 11-C , 29-H ) :   0.9733 B( 11-C , 30-H ) :   0.9736 B( 11-C , 31-H ) :   0.9703
B( 12-C , 13-O ) :   1.0974 B( 12-C , 14-O ) :   1.8861 B( 13-O , 14-O ) :   0.2633
B( 13-O , 32-H ) :   0.8764

FINAL SINGLE POINT ENERGY      -647.699567501712

DIPOLE MOMENT
-------------

Method             : SCF
Type of density    : Electron Density
Multiplicity       :   1
Irrep              :   0
Energy             :  -647.6995675017116127 Eh
Relativity type    :
Basis              : AO
                                X                 Y                 Z
Electronic contribution:     20.094240823       2.047773578      -0.091829766
Nuclear contribution   :    -21.489460358      -2.609939284      -0.389471995
                        -----------------------------------------
Total Dipole Moment    :     -1.395219535      -0.562165706      -0.481301760
                        -----------------------------------------
Magnitude (a.u.)       :      1.579341386
Magnitude (Debye)      :      4.014366777

Rotational constants in cm-1:             0.046436             0.008332             0.007827
Rotational constants in MHz :          1392.107555           249.788132           234.640349

                             ****ORCA TERMINATED NORMALLY****
TOTAL RUN TIME: 0 days 0 hours 3 minutes 5 seconds 25 msec
