                         Program Version 6.0.0  -   RELEASE   -
|  1> # ORCA input file
|  2> #
|  3> !PBE 6-311+G** Opt CPCM(WATER)
|  4> * xyz 0 1
|  5>    C        2.95021        -0.38900         1.26274
|  6>    C        2.52045        -1.27848         0.09338
|  7>    C        0.99553        -1.40741         0.07675
|  8>    C        3.03305        -0.73504        -1.25720
|  9>    C        4.54216        -0.63179        -1.32375
| 10>    C        5.34421        -1.77303        -1.21037
| 11>    C        6.73846        -1.66838        -1.22843
| 12>    C        7.36134        -0.42186        -1.38715
| 13>    C        6.55228         0.71875        -1.50569
| 14>    C        5.15995         0.61450        -1.47446
| 15>    C        8.87998        -0.34092        -1.48484
| 16>    C        9.28189         0.24772        -2.84195
| 17>    C        9.61173         0.40524        -0.37163
| 18>    O        8.87745         0.76600         0.70549
| 19>    O       10.81195         0.64384        -0.41318
| 20>    H        2.59304        -0.80141         2.21203
| 21>    H        2.55000         0.62512         1.15790
| 22>    H        4.04024        -0.31777         1.33342
| 23>    H        2.93334        -2.27988         0.25826
| 24>    H        0.51345        -0.43617        -0.07745
| 25>    H        0.63424        -1.81602         1.02656
| 26>    H        0.66784        -2.08146        -0.72144
| 27>    H        2.58341         0.24756        -1.45114
| 28>    H        2.69896        -1.38702        -2.07513
| 29>    H        4.88886        -2.75489        -1.10326
| 30>    H        7.32748        -2.57887        -1.13792
| 31>    H        6.99599         1.70432        -1.63567
| 32>    H        4.56054         1.51848        -1.56984
| 33>    H        9.27510        -1.36482        -1.43749
| 34>    H        8.93076         1.27903        -2.95691
| 35>    H        8.86386        -0.34431        -3.66356
| 36>    H       10.37078         0.26519        -2.96132
| 37>    H        7.93807         0.51129         0.66734
| 38> *
| 39>
| 40>                          ****END OF INPUT****
 Total Charge           Charge          ....    0
 Multiplicity           Mult            ....    1
 Number of Electrons    NEL             ....  112
FINAL SINGLE POINT ENERGY      -656.055977413725
FINAL SINGLE POINT ENERGY      -656.058690318276
FINAL SINGLE POINT ENERGY      -656.059313131909
FINAL SINGLE POINT ENERGY      -656.059415260284
FINAL SINGLE POINT ENERGY      -656.059728341612
FINAL SINGLE POINT ENERGY      -656.059782267600
FINAL SINGLE POINT ENERGY      -656.059836275927
FINAL SINGLE POINT ENERGY      -656.059877400958
FINAL SINGLE POINT ENERGY      -656.059954648864
FINAL SINGLE POINT ENERGY      -656.060025060122
FINAL SINGLE POINT ENERGY      -656.060099810411
FINAL SINGLE POINT ENERGY      -656.060132863593
FINAL SINGLE POINT ENERGY      -656.060151625157
FINAL SINGLE POINT ENERGY      -656.060158379981
FINAL SINGLE POINT ENERGY      -656.060161215044
                    ***********************HURRAY********************

CARTESIAN COORDINATES (ANGSTROEM)
---------------------------------
  C      2.841252   -0.175124    1.256858
  C      2.512824   -1.204608    0.166961
  C      1.002829   -1.472985    0.100571
  C      3.036973   -0.761441   -1.223528
  C      4.541174   -0.633969   -1.311622
  C      5.359667   -1.778310   -1.301877
  C      6.753965   -1.671669   -1.365213
  C      7.378520   -0.414125   -1.445710
  C      6.564015    0.733583   -1.460060
  C      5.170947    0.622175   -1.391967
  C      8.895165   -0.301878   -1.548379
  C      9.366202    0.259385   -2.898188
  C      9.503180    0.473161   -0.372822
  O      8.977499    0.212508    0.853759
  O     10.435206    1.254962   -0.459660
  H      2.478068   -0.515406    2.239850
  H      2.357612    0.792046    1.034583
  H      3.925306    0.001697    1.338610
  H      3.019574   -2.153835    0.423789
  H      0.455300   -0.553913   -0.171067
  H      0.619118   -1.816856    1.074520
  H      0.764592   -2.242650   -0.651390
  H      2.568240    0.203380   -1.485902
  H      2.693911   -1.499010   -1.970450
  H      4.899482   -2.769793   -1.249310
  H      7.368402   -2.577168   -1.360238
  H      7.021058    1.725929   -1.524781
  H      4.557480    1.528084   -1.404425
  H      9.306356   -1.323455   -1.434029
  H      8.995504    1.283841   -3.052042
  H      8.984880   -0.373185   -3.712671
  H     10.463779    0.276588   -2.952260
  H      8.208521   -0.389452    0.762182

 Multiplicity           Mult            ....    1
 Number of Electrons    NEL             ....  112
 Basis Dimension        Dim             ....  438

ORBITAL ENERGIES
----------------

  NO   OCC          E(Eh)            E(eV)
   0   2.0000     -18.798869      -511.5432
   1   2.0000     -18.746118      -510.1078
   2   2.0000     -10.017598      -272.5927
   3   2.0000      -9.915049      -269.8022
   4   2.0000      -9.903970      -269.5007
   5   2.0000      -9.897694      -269.3300
   6   2.0000      -9.891889      -269.1720
   7   2.0000      -9.891477      -269.1608
   8   2.0000      -9.888327      -269.0751
   9   2.0000      -9.887882      -269.0629
  10   2.0000      -9.886183      -269.0167
  11   2.0000      -9.879195      -268.8266
  12   2.0000      -9.876713      -268.7590
  13   2.0000      -9.864363      -268.4230
  14   2.0000      -9.863415      -268.3972
  15   2.0000      -1.020077       -27.7577
  16   2.0000      -0.941977       -25.6325
  17   2.0000      -0.791840       -21.5470
  18   2.0000      -0.746155       -20.3039
  19   2.0000      -0.721659       -19.6373
  20   2.0000      -0.679100       -18.4792
  21   2.0000      -0.673615       -18.3300
  22   2.0000      -0.614623       -16.7247
  23   2.0000      -0.610344       -16.6083
  24   2.0000      -0.593164       -16.1408
  25   2.0000      -0.559487       -15.2244
  26   2.0000      -0.551495       -15.0069
  27   2.0000      -0.528108       -14.3705
  28   2.0000      -0.498066       -13.5531
  29   2.0000      -0.475216       -12.9313
  30   2.0000      -0.451688       -12.2911
  31   2.0000      -0.428145       -11.6504
  32   2.0000      -0.416541       -11.3347
  33   2.0000      -0.409084       -11.1317
  34   2.0000      -0.398985       -10.8569
  35   2.0000      -0.397651       -10.8206
  36   2.0000      -0.387733       -10.5507
  37   2.0000      -0.378163       -10.2903
  38   2.0000      -0.374995       -10.2041
  39   2.0000      -0.371239       -10.1019
  40   2.0000      -0.358938        -9.7672
  41   2.0000      -0.343193        -9.3388
  42   2.0000      -0.333272        -9.0688
  43   2.0000      -0.330895        -9.0041
  44   2.0000      -0.321317        -8.7435
  45   2.0000      -0.319897        -8.7048
  46   2.0000      -0.315874        -8.5954
  47   2.0000      -0.303485        -8.2582
  48   2.0000      -0.296334        -8.0637
  49   2.0000      -0.290772        -7.9123
  50   2.0000      -0.289251        -7.8709
  51   2.0000      -0.282490        -7.6869
  52   2.0000      -0.276877        -7.5342
  53   2.0000      -0.248509        -6.7623
  54   2.0000      -0.235398        -6.4055
  55   2.0000      -0.219280        -5.9669
  56   0.0000      -0.054479        -1.4824
  57   0.0000      -0.053836        -1.4650
  58   0.0000      -0.042689        -1.1616
  59   0.0000      -0.013852        -0.3769
  60   0.0000       0.000435         0.0118

MULLIKEN ATOMIC CHARGES
-----------------------
   0 C :   -0.760335
   1 C :    0.527829
   2 C :   -0.849751
   3 C :   -1.232519
   4 C :    1.910924
   5 C :   -0.622919
   6 C :   -0.569800
   7 C :    0.996353
   8 C :   -0.791791
   9 C :   -0.667314
  10 C :    0.011197
  11 C :   -0.717465
  12 C :   -0.082084
  13 O :   -0.166178
  14 O :   -0.333180
  15 H :    0.170133
  16 H :    0.174926
  17 H :    0.176637
  18 H :    0.166138
  19 H :    0.173764
  20 H :    0.170222
  21 H :    0.169411
  22 H :    0.180772
  23 H :    0.185737
  24 H :    0.158713
  25 H :    0.163098
  26 H :    0.170805
  27 H :    0.157837
  28 H :    0.233659
  29 H :    0.197554
  30 H :    0.183200
  31 H :    0.185027
  32 H :    0.329402
Sum of atomic charges:    0.0000000

LOEWDIN ATOMIC CHARGES
----------------------
   0 C :   -0.142817
   1 C :   -0.178830
   2 C :   -0.146568
   3 C :   -0.124084
   4 C :   -0.116957
   5 C :   -0.068100
   6 C :   -0.063966
   7 C :   -0.141217
   8 C :   -0.062928
   9 C :   -0.070173
  10 C :   -0.131757
  11 C :   -0.101553
  12 C :   -0.023568
  13 O :   -0.046517
  14 O :   -0.206253
  15 H :    0.068414
  16 H :    0.077935
  17 H :    0.075887
  18 H :    0.084612
  19 H :    0.073996
  20 H :    0.067737
  21 H :    0.068136
  22 H :    0.095769
  23 H :    0.094786
  24 H :    0.097810
  25 H :    0.098103
  26 H :    0.103879
  27 H :    0.096852
  28 H :    0.125188
  29 H :    0.084636
  30 H :    0.080559
  31 H :    0.077777
  32 H :    0.153210

  Mayer bond orders larger than 0.100000
B(  0-C ,  1-C ) :   0.6852 B(  0-C ,  2-C ) :  -0.1096 B(  0-C , 15-H ) :   1.0034
B(  0-C , 16-H ) :   0.9959 B(  0-C , 17-H ) :   0.9900 B(  1-C ,  2-C ) :   0.5026
B(  1-C ,  3-C ) :   0.6506 B(  1-C ,  5-C ) :   0.1384 B(  1-C , 18-H ) :   0.9474
B(  2-C ,  3-C ) :   0.4340 B(  2-C ,  4-C ) :  -0.3925 B(  2-C ,  5-C ) :   0.1069
B(  2-C , 19-H ) :   1.0241 B(  2-C , 20-H ) :   0.9979 B(  2-C , 21-H ) :   0.9921
B(  3-C ,  4-C ) :  -0.9857 B(  3-C ,  5-C ) :   0.3120 B(  3-C ,  6-C ) :   0.1230
B(  3-C ,  7-C ) :  -0.2468 B(  3-C ,  8-C ) :   0.2034 B(  3-C , 22-H ) :   1.2522
B(  3-C , 23-H ) :   1.0887 B(  4-C ,  5-C ) :   1.1121 B(  4-C ,  7-C ) :   0.6924
B(  4-C ,  8-C ) :  -0.3540 B(  4-C ,  9-C ) :   1.1155 B(  4-C , 10-C ) :  -0.1812
B(  4-C , 18-H ) :  -0.1383 B(  4-C , 22-H ) :  -0.4689 B(  4-C , 23-H ) :  -0.1965
B(  5-C ,  6-C ) :   1.1455 B(  5-C ,  9-C ) :   0.5398 B(  5-C , 24-H ) :   0.9650
B(  6-C ,  7-C ) :   1.2221 B(  6-C ,  8-C ) :   0.4744 B(  6-C ,  9-C ) :  -0.3267
B(  6-C , 12-C ) :  -0.1765 B(  6-C , 13-O ) :  -0.1578 B(  6-C , 25-H ) :   0.9593
B(  6-C , 28-H ) :   0.1496 B(  7-C ,  8-C ) :   1.3835 B(  7-C , 10-C ) :   0.2254
B(  7-C , 11-C ) :  -0.3914 B(  7-C , 12-C ) :  -0.3959 B(  7-C , 13-O ) :   0.3777
B(  7-C , 28-H ) :  -0.3037 B(  7-C , 29-H ) :  -0.1484 B(  7-C , 32-H ) :   0.1728
B(  8-C ,  9-C ) :   1.2230 B(  8-C , 10-C ) :   0.1266 B(  8-C , 11-C ) :   0.3814
B(  8-C , 12-C ) :   0.5744 B(  8-C , 14-O ) :  -0.1654 B(  8-C , 26-H ) :   0.9107
B(  9-C , 10-C ) :   0.2437 B(  9-C , 22-H ) :   0.2182 B(  9-C , 27-H ) :   0.9529
B( 10-C , 11-C ) :   0.8855 B( 10-C , 12-C ) :   0.8459 B( 10-C , 13-O ) :  -0.2815
B( 10-C , 28-H ) :   1.0345 B( 11-C , 29-H ) :   0.9595 B( 11-C , 30-H ) :   0.9933
B( 11-C , 31-H ) :   0.9832 B( 12-C , 13-O ) :   1.3608 B( 12-C , 14-O ) :   2.0502
B( 13-O , 32-H ) :   0.8313

FINAL SINGLE POINT ENERGY      -656.060162247607

DIPOLE MOMENT
-------------

Method             : SCF
Type of density    : Electron Density
Multiplicity       :   1
Irrep              :   0
Energy             :  -656.0601622476070816 Eh
Relativity type    :
Basis              : AO
                                X                 Y                 Z
Electronic contribution:     19.149610866       2.994426584      -0.643812973
Nuclear contribution   :    -21.141306442      -4.572891760       0.033096750
                        -----------------------------------------
Total Dipole Moment    :     -1.991695576      -1.578465175      -0.610716223
                        -----------------------------------------
Magnitude (a.u.)       :      2.613690472
Magnitude (Debye)      :      6.643473213

Rotational constants in cm-1:             0.048060             0.008453             0.007954
Rotational constants in MHz :          1440.795442           253.414787           238.468779

                             ****ORCA TERMINATED NORMALLY****
TOTAL RUN TIME: 0 days 0 hours 17 minutes 20 seconds 200 msec
