                         Program Version 6.0.0  -   RELEASE   -
|  1> # ORCA input file
|  2> #
|  3> !B3LYP STO-3G Opt CPCM(WATER)
|  4> * xyz 0 1
|  5>    C       -0.49838         1.45672         0.09896
|  6>    C        0.83636         1.86187         0.13987
|  7>    C        1.85850         0.90964         0.07692
|  8>    C        1.52705        -0.44553         0.10327
|  9>    C        0.19399        -0.85911         0.06588
| 10>    C       -0.81311         0.09845         0.04328
| 11>   Cl       -2.45804        -0.38995        -0.04430
| 12>    O        2.48623        -1.41804         0.15924
| 13>    O        3.19540         1.23915         0.00408
| 14>    C        3.55840         2.36555        -0.71342
| 15>    C        4.59924         3.16189        -0.21840
| 16>    C        4.97545         4.33057        -0.88996
| 17>    C        4.31222         4.69779        -2.05616
| 18>    C        3.30213         3.89395        -2.58058
| 19>    C        2.94419         2.71337        -1.92599
| 20>   Cl        4.74503         6.15332        -2.86475
| 21>   Cl        5.43890         2.74189         1.23085
| 22>    H       -1.28677         2.20447         0.09898
| 23>    H        1.06264         2.92223         0.19335
| 24>    H       -0.04081        -1.92109         0.05235
| 25>    H        3.32941        -0.97731         0.37369
| 26>    H        5.77651         4.95189        -0.49678
| 27>    H        2.78688         4.18033        -3.49530
| 28>    H        2.16802         2.08687        -2.36091
| 29> **                         ****END OF INPUT****
 Total Charge           Charge          ....    0
 Multiplicity           Mult            ....    1
 Number of Electrons    NEL             ....  146
FINAL SINGLE POINT ENERGY     -1969.172205505193
FINAL SINGLE POINT ENERGY     -1969.199087985402
FINAL SINGLE POINT ENERGY     -1969.204498696971
FINAL SINGLE POINT ENERGY     -1969.206468256717
FINAL SINGLE POINT ENERGY     -1969.206969015260
FINAL SINGLE POINT ENERGY     -1969.207456448342
FINAL SINGLE POINT ENERGY     -1969.207737894554
FINAL SINGLE POINT ENERGY     -1969.207780994072
FINAL SINGLE POINT ENERGY     -1969.207799933125
FINAL SINGLE POINT ENERGY     -1969.207804545550
FINAL SINGLE POINT ENERGY     -1969.207808192683
FINAL SINGLE POINT ENERGY     -1969.207809362513
                    ***********************HURRAY********************

CARTESIAN COORDINATES (ANGSTROEM)
---------------------------------
  C     -0.771970    1.290673    0.142943
  C      0.504951    1.892828    0.197319
  C      1.645148    1.072162    0.139907
  C      1.545022   -0.357378    0.062911
  C      0.264579   -0.964499    0.011101
  C     -0.862271   -0.116437    0.049936
  Cl    -2.511081   -0.876088   -0.017038
  O      2.733746   -1.094726    0.045581
  O      3.023440    1.478605    0.298900
  C      3.460056    2.522574   -0.570407
  C      4.682879    3.162223   -0.200636
  C      5.254322    4.178136   -0.989937
  C      4.580826    4.555399   -2.173719
  C      3.375113    3.937124   -2.572351
  C      2.819378    2.920579   -1.773611
  Cl     5.291197    5.864378   -3.202501
  Cl     5.509051    2.638543    1.319384
  H     -1.680036    1.905598    0.176905
  H      0.601915    2.984896    0.274751
  H      0.161203   -2.054842   -0.056328
  H      3.414601   -0.313022    0.103069
  H      6.194261    4.661097   -0.688482
  H      2.875973    4.242799   -3.502497
  H      1.887140    2.428297   -2.081029

 Multiplicity           Mult            ....    1
 Number of Electrons    NEL             ....  146
 Basis Dimension        Dim             ....  104

ORBITAL ENERGIES
----------------

  NO   OCC          E(Eh)            E(eV)
   0   2.0000    -100.468972     -2733.8997
   1   2.0000    -100.462633     -2733.7272
   2   2.0000    -100.451251     -2733.4175
   3   2.0000     -18.997039      -516.9357
   4   2.0000     -18.942920      -515.4631
   5   2.0000     -10.103984      -274.9434
   6   2.0000     -10.089783      -274.5570
   7   2.0000     -10.085519      -274.4409
   8   2.0000     -10.080660      -274.3087
   9   2.0000     -10.074782      -274.1488
  10   2.0000     -10.071874      -274.0696
  11   2.0000     -10.053121      -273.5593
  12   2.0000     -10.045063      -273.3401
  13   2.0000     -10.040690      -273.2211
  14   2.0000     -10.032466      -272.9973
  15   2.0000     -10.025850      -272.8172
  16   2.0000     -10.023775      -272.7608
  17   2.0000      -9.268397      -252.2059
  18   2.0000      -9.262709      -252.0511
  19   2.0000      -9.252385      -251.7702
  20   2.0000      -7.046916      -191.7563
  21   2.0000      -7.041118      -191.5986
  22   2.0000      -7.032124      -191.3538
  23   2.0000      -7.031653      -191.3410
  24   2.0000      -7.030595      -191.3122
  25   2.0000      -7.026483      -191.2003
  26   2.0000      -7.025979      -191.1866
  27   2.0000      -7.016228      -190.9213
  28   2.0000      -7.015700      -190.9069
  29   2.0000      -1.038101       -28.2482
  30   2.0000      -0.991460       -26.9790
  31   2.0000      -0.855670       -23.2840
  32   2.0000      -0.832034       -22.6408
  33   2.0000      -0.808111       -21.9898
  34   2.0000      -0.773584       -21.0503
  35   2.0000      -0.768998       -20.9255
  36   2.0000      -0.714046       -19.4302
  37   2.0000      -0.712236       -19.3809
  38   2.0000      -0.698733       -19.0135
  39   2.0000      -0.667209       -18.1557
  40   2.0000      -0.598063       -16.2741
  41   2.0000      -0.586036       -15.9469
  42   2.0000      -0.560894       -15.2627
  43   2.0000      -0.548776       -14.9329
  44   2.0000      -0.505978       -13.7684
  45   2.0000      -0.475711       -12.9447
  46   2.0000      -0.455179       -12.3860
  47   2.0000      -0.449817       -12.2401
  48   2.0000      -0.430677       -11.7193
  49   2.0000      -0.427487       -11.6325
  50   2.0000      -0.411085       -11.1862
  51   2.0000      -0.405064       -11.0224
  52   2.0000      -0.399188       -10.8625
  53   2.0000      -0.377579       -10.2744
  54   2.0000      -0.366937        -9.9849
  55   2.0000      -0.359554        -9.7840
  56   2.0000      -0.350253        -9.5309
  57   2.0000      -0.344485        -9.3739
  58   2.0000      -0.334952        -9.1145
  59   2.0000      -0.312248        -8.4967
  60   2.0000      -0.305476        -8.3124
  61   2.0000      -0.290528        -7.9057
  62   2.0000      -0.284708        -7.7473
  63   2.0000      -0.275530        -7.4976
  64   2.0000      -0.260366        -7.0849
  65   2.0000      -0.258047        -7.0218
  66   2.0000      -0.253633        -6.9017
  67   2.0000      -0.248721        -6.7680
  68   2.0000      -0.245168        -6.6714
  69   2.0000      -0.215259        -5.8575
  70   2.0000      -0.201117        -5.4727
  71   2.0000      -0.176183        -4.7942
  72   2.0000      -0.147372        -4.0102
  73   0.0000       0.050817         1.3828
  74   0.0000       0.052629         1.4321
  75   0.0000       0.068749         1.8708
  76   0.0000       0.077752         2.1157
  77   0.0000       0.092107         2.5064

MULLIKEN ATOMIC CHARGES
-----------------------
   0 C :   -0.084907
   1 C :   -0.083352
   2 C :    0.061289
   3 C :    0.086616
   4 C :   -0.095971
   5 C :    0.028548
   6 Cl:   -0.146395
   7 O :   -0.217298
   8 O :   -0.160043
   9 C :    0.103372
  10 C :    0.023152
  11 C :   -0.065993
  12 C :    0.028238
  13 C :   -0.064913
  14 C :   -0.081365
  15 Cl:   -0.128555
  16 Cl:   -0.117732
  17 H :    0.105727
  18 H :    0.109482
  19 H :    0.110246
  20 H :    0.230945
  21 H :    0.126192
  22 H :    0.117272
  23 H :    0.115444
Sum of atomic charges:    0.0000000

LOEWDIN ATOMIC CHARGES
----------------------
   0 C :   -0.062522
   1 C :   -0.051479
   2 C :    0.031665
   3 C :    0.063698
   4 C :   -0.080873
   5 C :    0.026517
   6 Cl:   -0.113504
   7 O :   -0.127592
   8 O :   -0.077073
   9 C :    0.076203
  10 C :    0.005590
  11 C :   -0.045063
  12 C :    0.020469
  13 C :   -0.034687
  14 C :   -0.054621
  15 Cl:   -0.096139
  16 Cl:   -0.085217
  17 H :    0.064879
  18 H :    0.068113
  19 H :    0.069221
  20 H :    0.174159
  21 H :    0.081520
  22 H :    0.073691
  23 H :    0.073046

  Mayer bond orders larger than 0.100000
B(  0-C ,  1-C ) :   1.4056 B(  0-C ,  5-C ) :   1.3980 B(  0-C , 17-H ) :   0.9574
B(  1-C ,  2-C ) :   1.4109 B(  1-C , 18-H ) :   0.9549 B(  2-C ,  3-C ) :   1.2714
B(  2-C ,  8-O ) :   0.9672 B(  3-C ,  4-C ) :   1.3451 B(  3-C ,  7-O ) :   1.1448
B(  4-C ,  5-C ) :   1.4094 B(  4-C , 19-H ) :   0.9555 B(  5-C ,  6-Cl) :   0.9495
B(  7-O , 20-H ) :   0.8650 B(  8-O ,  9-C ) :   1.0235 B(  9-C , 10-C ) :   1.3209
B(  9-C , 14-C ) :   1.3601 B( 10-C , 11-C ) :   1.4208 B( 10-C , 13-C ) :   0.1002
B( 10-C , 16-Cl) :   0.9616 B( 11-C , 12-C ) :   1.3900 B( 11-C , 14-C ) :   0.1028
B( 11-C , 21-H ) :   0.9517 B( 12-C , 13-C ) :   1.3958 B( 12-C , 15-Cl) :   0.9582
B( 13-C , 14-C ) :   1.4360 B( 13-C , 22-H ) :   0.9547 B( 14-C , 23-H ) :   0.9497

FINAL SINGLE POINT ENERGY     -1969.207809677946

DIPOLE MOMENT
-------------

Method             : SCF
Type of density    : Electron Density
Multiplicity       :   1
Irrep              :   0
Energy             : -1969.2078096779464431 Eh
Relativity type    :
Basis              : AO
                                X                 Y                 Z
Electronic contribution:      4.938998892       2.868059446       1.026804965
Nuclear contribution   :     -4.789220532      -2.380304248      -1.441992104
                        -----------------------------------------
Total Dipole Moment    :      0.149778360       0.487755198      -0.415187138
                        -----------------------------------------
Magnitude (a.u.)       :      0.657813842
Magnitude (Debye)      :      1.672029907

Rotational constants in cm-1:             0.021299             0.004798             0.004161
Rotational constants in MHz :           638.513843           143.830029           124.750244

                             ****ORCA TERMINATED NORMALLY****
TOTAL RUN TIME: 0 days 0 hours 6 minutes 24 seconds 871 msec
