                         Program Version 6.0.0  -   RELEASE   -
|  1> # ORCA input file
|  2> #
|  3> !B3LYP 6-311+G** Opt CPCM(WATER)
|  4> * xyz 0 1
|  5>    C       -0.49838         1.45672         0.09896
|  6>    C        0.83636         1.86187         0.13987
|  7>    C        1.85850         0.90964         0.07692
|  8>    C        1.52705        -0.44553         0.10327
|  9>    C        0.19399        -0.85911         0.06588
| 10>    C       -0.81311         0.09845         0.04328
| 11>   Cl       -2.45804        -0.38995        -0.04430
| 12>    O        2.48623        -1.41804         0.15924
| 13>    O        3.19540         1.23915         0.00408
| 14>    C        3.55840         2.36555        -0.71342
| 15>    C        4.59924         3.16189        -0.21840
| 16>    C        4.97545         4.33057        -0.88996
| 17>    C        4.31222         4.69779        -2.05616
| 18>    C        3.30213         3.89395        -2.58058
| 19>    C        2.94419         2.71337        -1.92599
| 20>   Cl        4.74503         6.15332        -2.86475
| 21>   Cl        5.43890         2.74189         1.23085
| 22>    H       -1.28677         2.20447         0.09898
| 23>    H        1.06264         2.92223         0.19335
| 24>    H       -0.04081        -1.92109         0.05235
| 25>    H        3.32941        -0.97731         0.37369
| 26>    H        5.77651         4.95189        -0.49678
| 27>    H        2.78688         4.18033        -3.49530
| 28>    H        2.16802         2.08687        -2.36091
| 29> **                         ****END OF INPUT****
 Total Charge           Charge          ....    0
 Multiplicity           Mult            ....    1
 Number of Electrons    NEL             ....  146
FINAL SINGLE POINT ENERGY     -1992.220811123814
FINAL SINGLE POINT ENERGY     -1992.225531936393
FINAL SINGLE POINT ENERGY     -1992.226955271503
FINAL SINGLE POINT ENERGY     -1992.227151980379
FINAL SINGLE POINT ENERGY     -1992.227250291818
FINAL SINGLE POINT ENERGY     -1992.227280674339
FINAL SINGLE POINT ENERGY     -1992.227325112942
FINAL SINGLE POINT ENERGY     -1992.227377456857
FINAL SINGLE POINT ENERGY     -1992.227434621869
FINAL SINGLE POINT ENERGY     -1992.227515102193
FINAL SINGLE POINT ENERGY     -1992.227554558322
FINAL SINGLE POINT ENERGY     -1992.227573764519
FINAL SINGLE POINT ENERGY     -1992.227581271175
FINAL SINGLE POINT ENERGY     -1992.227582854523
                    ***********************HURRAY********************

CARTESIAN COORDINATES (ANGSTROEM)
---------------------------------
  C     -0.721863    1.318779    0.342599
  C      0.549560    1.883833    0.421470
  C      1.674456    1.099168    0.203812
  C      1.556411   -0.268532   -0.072893
  C      0.286894   -0.844415   -0.148897
  C     -0.826894   -0.039863    0.056166
  Cl    -2.429611   -0.773423   -0.046366
  O      2.645081   -1.056453   -0.268785
  O      2.965985    1.597793    0.346190
  C      3.438643    2.548754   -0.528885
  C      4.569448    3.274559   -0.135292
  C      5.136108    4.227930   -0.973893
  C      4.557232    4.452512   -2.218393
  C      3.436685    3.742812   -2.633607
  C      2.882024    2.788598   -1.784332
  Cl     5.265456    5.665409   -3.283891
  Cl     5.290178    2.981363    1.436679
  H     -1.604603    1.922352    0.507150
  H      0.667744    2.936839    0.649774
  H      0.192168   -1.901097   -0.364519
  H      3.448914   -0.529527   -0.144458
  H      6.008323    4.782498   -0.654292
  H      2.998056    3.921535   -3.606931
  H      2.013046    2.227496   -2.104235

 Multiplicity           Mult            ....    1
 Number of Electrons    NEL             ....  146
 Basis Dimension        Dim             ....  440

ORBITAL ENERGIES
----------------

  NO   OCC          E(Eh)            E(eV)
   0   2.0000    -101.566110     -2763.7544
   1   2.0000    -101.562119     -2763.6458
   2   2.0000    -101.560356     -2763.5978
   3   2.0000     -19.188961      -522.1582
   4   2.0000     -19.168013      -521.5882
   5   2.0000     -10.265721      -279.3445
   6   2.0000     -10.257264      -279.1144
   7   2.0000     -10.252753      -278.9916
   8   2.0000     -10.249546      -278.9043
   9   2.0000     -10.247784      -278.8564
  10   2.0000     -10.247211      -278.8408
  11   2.0000     -10.203988      -277.6646
  12   2.0000     -10.198479      -277.5147
  13   2.0000     -10.197224      -277.4806
  14   2.0000     -10.195491      -277.4334
  15   2.0000     -10.192072      -277.3404
  16   2.0000     -10.189722      -277.2764
  17   2.0000      -9.480358      -257.9737
  18   2.0000      -9.476402      -257.8660
  19   2.0000      -9.474664      -257.8187
  20   2.0000      -7.245029      -197.1473
  21   2.0000      -7.240910      -197.0352
  22   2.0000      -7.239101      -196.9859
  23   2.0000      -7.235392      -196.8850
  24   2.0000      -7.234903      -196.8717
  25   2.0000      -7.231416      -196.7768
  26   2.0000      -7.231159      -196.7698
  27   2.0000      -7.229736      -196.7311
  28   2.0000      -7.229438      -196.7230
  29   2.0000      -1.110891       -30.2289
  30   2.0000      -1.076602       -29.2958
  31   2.0000      -0.917016       -24.9533
  32   2.0000      -0.900598       -24.5065
  33   2.0000      -0.882162       -24.0049
  34   2.0000      -0.848146       -23.0792
  35   2.0000      -0.836838       -22.7715
  36   2.0000      -0.772032       -21.0081
  37   2.0000      -0.768705       -20.9175
  38   2.0000      -0.762258       -20.7421
  39   2.0000      -0.726035       -19.7564
  40   2.0000      -0.658077       -17.9072
  41   2.0000      -0.639897       -17.4125
  42   2.0000      -0.632162       -17.2020
  43   2.0000      -0.610112       -16.6020
  44   2.0000      -0.577655       -15.7188
  45   2.0000      -0.547435       -14.8965
  46   2.0000      -0.521538       -14.1918
  47   2.0000      -0.514369       -13.9967
  48   2.0000      -0.501882       -13.6569
  49   2.0000      -0.482591       -13.1320
  50   2.0000      -0.468537       -12.7495
  51   2.0000      -0.457623       -12.4526
  52   2.0000      -0.451761       -12.2930
  53   2.0000      -0.446057       -12.1378
  54   2.0000      -0.440927       -11.9982
  55   2.0000      -0.422258       -11.4902
  56   2.0000      -0.419472       -11.4144
  57   2.0000      -0.407501       -11.0887
  58   2.0000      -0.404487       -11.0067
  59   2.0000      -0.390501       -10.6261
  60   2.0000      -0.385533       -10.4909
  61   2.0000      -0.379246       -10.3198
  62   2.0000      -0.371800       -10.1172
  63   2.0000      -0.360504        -9.8098
  64   2.0000      -0.333822        -9.0838
  65   2.0000      -0.330106        -8.9826
  66   2.0000      -0.324875        -8.8403
  67   2.0000      -0.324112        -8.8195
  68   2.0000      -0.321622        -8.7518
  69   2.0000      -0.272482        -7.4146
  70   2.0000      -0.264185        -7.1888
  71   2.0000      -0.249060        -6.7773
  72   2.0000      -0.236922        -6.4470
  73   0.0000      -0.041960        -1.1418
  74   0.0000      -0.032370        -0.8808
  75   0.0000      -0.026431        -0.7192
  76   0.0000      -0.015959        -0.4343
  77   0.0000      -0.009237        -0.2514

MULLIKEN ATOMIC CHARGES
-----------------------
   0 C :   -0.643658
   1 C :   -0.003636
   2 C :   -0.167780
   3 C :   -0.445157
   4 C :   -0.231683
   5 C :    0.828815
   6 Cl:    0.334359
   7 O :   -0.294461
   8 O :   -0.008233
   9 C :   -2.522140
  10 C :    1.252573
  11 C :   -0.473464
  12 C :    1.076776
  13 C :   -0.450222
  14 C :   -0.321153
  15 Cl:    0.322884
  16 Cl:    0.288533
  17 H :    0.181927
  18 H :    0.178244
  19 H :    0.182201
  20 H :    0.320221
  21 H :    0.204601
  22 H :    0.187230
  23 H :    0.203223
Sum of atomic charges:    0.0000000

LOEWDIN ATOMIC CHARGES
----------------------
   0 C :   -0.094203
   1 C :   -0.022113
   2 C :   -0.056759
   3 C :   -0.008872
   4 C :   -0.078224
   5 C :   -0.229872
   6 Cl:    0.192601
   7 O :   -0.077620
   8 O :   -0.137118
   9 C :   -0.048100
  10 C :   -0.225730
  11 C :   -0.089547
  12 C :   -0.244525
  13 C :   -0.062519
  14 C :   -0.038445
  15 Cl:    0.198352
  16 Cl:    0.244908
  17 H :    0.095737
  18 H :    0.109434
  19 H :    0.107715
  20 H :    0.147336
  21 H :    0.107718
  22 H :    0.098911
  23 H :    0.110936

  Mayer bond orders larger than 0.100000
B(  0-C ,  1-C ) :   1.3574 B(  0-C ,  4-C ) :   0.2919 B(  0-C ,  5-C ) :   1.3103
B(  0-C ,  6-Cl) :   0.7017 B(  0-C ,  9-C ) :  -0.1349 B(  0-C , 10-C ) :   0.1132
B(  0-C , 17-H ) :   0.9420 B(  1-C ,  2-C ) :   1.2881 B(  1-C ,  3-C ) :   0.7849
B(  1-C ,  5-C ) :  -0.1204 B(  1-C ,  6-Cl) :   0.1875 B(  1-C ,  8-O ) :  -0.1509
B(  1-C ,  9-C ) :   0.2824 B(  1-C , 10-C ) :  -0.1065 B(  1-C , 11-C ) :  -0.1557
B(  1-C , 14-C ) :   0.1027 B(  1-C , 18-H ) :   0.9348 B(  2-C ,  3-C ) :   1.2455
B(  2-C ,  5-C ) :   0.1916 B(  2-C ,  7-O ) :  -0.4977 B(  2-C ,  8-O ) :   1.8463
B(  2-C , 10-C ) :   0.1311 B(  2-C , 11-C ) :   0.1470 B(  2-C , 13-C ) :   0.1003
B(  2-C , 14-C ) :  -0.2764 B(  2-C , 16-Cl) :  -0.2030 B(  2-C , 20-H ) :  -0.1442
B(  2-C , 23-H ) :   0.1089 B(  3-C ,  4-C ) :   1.1298 B(  3-C ,  5-C ) :  -0.2252
B(  3-C ,  6-Cl) :   0.1686 B(  3-C ,  7-O ) :   1.9090 B(  3-C ,  8-O ) :  -0.6827
B(  3-C ,  9-C ) :   0.1593 B(  3-C , 10-C ) :  -0.2844 B(  3-C , 13-C ) :  -0.1102
B(  3-C , 14-C ) :   0.1731 B(  3-C , 20-H ) :   0.1692 B(  4-C ,  5-C ) :   1.6325
B(  4-C ,  6-Cl) :   0.6263 B(  4-C ,  7-O ) :  -0.3892 B(  4-C ,  8-O ) :  -0.1373
B(  4-C ,  9-C ) :  -0.3180 B(  4-C , 10-C ) :   0.1128 B(  4-C , 11-C ) :   0.1230
B(  4-C , 19-H ) :   0.8624 B(  5-C ,  6-Cl) :  -0.9047 B(  5-C , 14-C ) :   0.1114
B(  7-O ,  9-C ) :   0.2372 B(  7-O , 14-C ) :  -0.1821 B(  7-O , 20-H ) :   0.8496
B(  8-O ,  9-C ) :   1.6384 B(  8-O , 10-C ) :  -0.7277 B(  9-C , 10-C ) :   1.9332
B(  9-C , 11-C ) :  -1.4575 B(  9-C , 12-C ) :  -0.4820 B(  9-C , 13-C ) :  -0.4730
B(  9-C , 14-C ) :   1.9154 B(  9-C , 16-Cl) :   1.5800 B(  9-C , 21-H ) :   0.1575
B( 10-C , 11-C ) :   3.0267 B( 10-C , 13-C ) :   0.3453 B( 10-C , 14-C ) :   1.0425
B( 10-C , 15-Cl) :   0.1741 B( 10-C , 16-Cl) :  -1.5122 B( 11-C , 12-C ) :   1.0979
B( 11-C , 14-C ) :  -0.7105 B( 11-C , 15-Cl) :   0.8033 B( 11-C , 16-Cl) :   0.5018
B( 11-C , 21-H ) :   0.9069 B( 12-C , 13-C ) :   1.2735 B( 12-C , 15-Cl) :  -1.0877
B( 13-C , 14-C ) :   1.4436 B( 13-C , 15-Cl) :   0.6825 B( 13-C , 22-H ) :   0.9291
B( 13-C , 23-H ) :  -0.1070 B( 14-C , 15-Cl) :   0.1324 B( 14-C , 16-Cl) :   0.3512
B( 14-C , 23-H ) :   0.9952

FINAL SINGLE POINT ENERGY     -1992.227583197646

DIPOLE MOMENT
-------------

Method             : SCF
Type of density    : Electron Density
Multiplicity       :   1
Irrep              :   0
Energy             : -1992.2275831976464815 Eh
Relativity type    :
Basis              : AO
                                X                 Y                 Z
Electronic contribution:      4.242882611       3.826411414       1.000752047
Nuclear contribution   :     -4.255069592      -3.278183307      -1.388568349
                        -----------------------------------------
Total Dipole Moment    :     -0.012186981       0.548228108      -0.387816302
                        -----------------------------------------
Magnitude (a.u.)       :      0.671642810
Magnitude (Debye)      :      1.707180351

Rotational constants in cm-1:             0.021833             0.004926             0.004381
Rotational constants in MHz :           654.537111           147.682250           131.347711

                             ****ORCA TERMINATED NORMALLY****
TOTAL RUN TIME: 0 days 1 hours 12 minutes 46 seconds 124 msec
