                         Program Version 6.0.0  -   RELEASE   -
|  1> # ORCA input file
|  2> #
|  3> !B3LYP def2-TZVP Opt CPCM(WATER)
|  4> * xyz 0 1
|  5>    C        2.84251         1.01411        -0.69096
|  6>    C        2.43769        -0.00906         0.37461
|  7>    C        0.91575        -0.01278         0.53493
|  8>    C        2.94670        -1.42385         0.03470
|  9>    C        4.45251        -1.51309        -0.08791
| 10>    C        5.27723        -1.21555         1.00286
| 11>    C        6.66758        -1.27499         0.88204
| 12>    C        7.26810        -1.65638        -0.32751
| 13>    C        6.43770        -1.95835        -1.41751
| 14>    C        5.04670        -1.88539        -1.29902
| 15>    C        8.78387        -1.78842        -0.41169
| 16>    C        9.16418        -3.23508        -0.74382
| 17>    C        9.51321        -0.83979        -1.36214
| 18>    O        8.78146         0.15695        -1.90506
| 19>    O       10.71031        -0.94017        -1.60515
| 20>    H        2.47037         2.01046        -0.43077
| 21>    H        2.43869         0.74424        -1.67252
| 22>    H        3.93059         1.08959        -0.77972
| 23>    H        2.86857         0.31218         1.33176
| 24>    H        0.41895        -0.36301        -0.37626
| 25>    H        0.54619         0.99434         0.75501
| 26>    H        0.61306        -0.66604         1.36024
| 27>    H        2.47811        -1.76575        -0.89972
| 28>    H        2.62532        -2.13383         0.80693
| 29>    H        4.84079        -0.93717         1.96023
| 30>    H        7.27498        -1.03913         1.75499
| 31>    H        6.86200        -2.26456        -2.37291
| 32>    H        4.42920        -2.12815        -2.16163
| 33>    H        9.19524        -1.55445         0.58086
| 34>    H        8.80273        -3.53129        -1.73562
| 35>    H        8.74197        -3.93027        -0.01021
| 36>    H       10.25123        -3.36973        -0.74622
| 37>    H        7.84710         0.18033        -1.63398
| 38> *
| 39>
| 40>                          ****END OF INPUT****
 Total Charge           Charge          ....    0
 Multiplicity           Mult            ....    1
 Number of Electrons    NEL             ....  112
FINAL SINGLE POINT ENERGY      -656.556952161114
FINAL SINGLE POINT ENERGY      -656.559845564929
FINAL SINGLE POINT ENERGY      -656.560287830183
FINAL SINGLE POINT ENERGY      -656.560340586674
FINAL SINGLE POINT ENERGY      -656.560636410537
FINAL SINGLE POINT ENERGY      -656.560733995855
FINAL SINGLE POINT ENERGY      -656.560753490217
FINAL SINGLE POINT ENERGY      -656.560988324593
FINAL SINGLE POINT ENERGY      -656.561101817619
FINAL SINGLE POINT ENERGY      -656.561389513352
FINAL SINGLE POINT ENERGY      -656.561719142558
FINAL SINGLE POINT ENERGY      -656.561754848818
FINAL SINGLE POINT ENERGY      -656.561795795977
FINAL SINGLE POINT ENERGY      -656.561818551957
FINAL SINGLE POINT ENERGY      -656.561830845520
FINAL SINGLE POINT ENERGY      -656.561829459244
FINAL SINGLE POINT ENERGY      -656.561839258780
FINAL SINGLE POINT ENERGY      -656.561840106025
FINAL SINGLE POINT ENERGY      -656.561840337325
                    ***********************HURRAY********************

CARTESIAN COORDINATES (ANGSTROEM)
---------------------------------
  C      2.696740    0.913359   -0.978482
  C      2.425133    0.045756    0.253009
  C      0.930994    0.025441    0.587355
  C      2.951632   -1.396838    0.079425
  C      4.449956   -1.512465   -0.065366
  C      5.291277   -1.331107    1.035381
  C      6.673253   -1.423133    0.909284
  C      7.263113   -1.706992   -0.323377
  C      6.427278   -1.894895   -1.425975
  C      5.046129   -1.798146   -1.296301
  C      8.776865   -1.840163   -0.448316
  C      9.222414   -3.272031   -0.757243
  C      9.315827   -0.853027   -1.480051
  O      9.189009    0.454253   -1.173451
  O      9.833952   -1.156288   -2.527403
  H      2.340514    1.933833   -0.818173
  H      2.179223    0.512418   -1.855652
  H      3.761974    0.963838   -1.212296
  H      2.955023    0.488420    1.104457
  H      0.356515   -0.422746   -0.229215
  H      0.551545    1.037970    0.744771
  H      0.734507   -0.553927    1.492862
  H      2.467034   -1.843703   -0.794311
  H      2.634633   -1.979449    0.950005
  H      4.861337   -1.119248    2.008232
  H      7.300925   -1.280388    1.781829
  H      6.853085   -2.120675   -2.397198
  H      4.419906   -1.950068   -2.168236
  H      9.211184   -1.538568    0.510205
  H      8.818696   -3.614219   -1.710423
  H      8.868023   -3.941244    0.027642
  H     10.310297   -3.337830   -0.803003
  H      8.762599    0.577780   -0.311156

 Multiplicity           Mult            ....    1
 Number of Electrons    NEL             ....  112
 Basis Dimension        Dim             ....  573

ORBITAL ENERGIES
----------------

  NO   OCC          E(Eh)            E(eV)
   0   2.0000     -19.175537      -521.7929
   1   2.0000     -19.120958      -520.3077
   2   2.0000     -10.309827      -280.5447
   3   2.0000     -10.197128      -277.4780
   4   2.0000     -10.186212      -277.1809
   5   2.0000     -10.178703      -276.9766
   6   2.0000     -10.173307      -276.8297
   7   2.0000     -10.173017      -276.8219
   8   2.0000     -10.170189      -276.7449
   9   2.0000     -10.169891      -276.7368
  10   2.0000     -10.168159      -276.6897
  11   2.0000     -10.161988      -276.5218
  12   2.0000     -10.161062      -276.4966
  13   2.0000     -10.148926      -276.1663
  14   2.0000     -10.147877      -276.1378
  15   2.0000      -1.110069       -30.2065
  16   2.0000      -1.027645       -27.9636
  17   2.0000      -0.866494       -23.5785
  18   2.0000      -0.817265       -22.2389
  19   2.0000      -0.792118       -21.5546
  20   2.0000      -0.746462       -20.3123
  21   2.0000      -0.740826       -20.1589
  22   2.0000      -0.678916       -18.4742
  23   2.0000      -0.675687       -18.3864
  24   2.0000      -0.654856       -17.8195
  25   2.0000      -0.617412       -16.8006
  26   2.0000      -0.609195       -16.5770
  27   2.0000      -0.584140       -15.8952
  28   2.0000      -0.554368       -15.0851
  29   2.0000      -0.525828       -14.3085
  30   2.0000      -0.501176       -13.6377
  31   2.0000      -0.475467       -12.9381
  32   2.0000      -0.468855       -12.7582
  33   2.0000      -0.457159       -12.4399
  34   2.0000      -0.446545       -12.1511
  35   2.0000      -0.443348       -12.0641
  36   2.0000      -0.432918       -11.7803
  37   2.0000      -0.425502       -11.5785
  38   2.0000      -0.421443       -11.4680
  39   2.0000      -0.417171       -11.3518
  40   2.0000      -0.403558       -10.9814
  41   2.0000      -0.384809       -10.4712
  42   2.0000      -0.377684       -10.2773
  43   2.0000      -0.373191       -10.1551
  44   2.0000      -0.363195        -9.8830
  45   2.0000      -0.362723        -9.8702
  46   2.0000      -0.358213        -9.7475
  47   2.0000      -0.343017        -9.3340
  48   2.0000      -0.337109        -9.1732
  49   2.0000      -0.332675        -9.0525
  50   2.0000      -0.326849        -8.8940
  51   2.0000      -0.320087        -8.7100
  52   2.0000      -0.316916        -8.6237
  53   2.0000      -0.290738        -7.9114
  54   2.0000      -0.257916        -7.0182
  55   2.0000      -0.242208        -6.5908
  56   0.0000      -0.019102        -0.5198
  57   0.0000      -0.018162        -0.4942
  58   0.0000       0.004638         0.1262
  59   0.0000       0.035414         0.9637
  60   0.0000       0.044823         1.2197

MULLIKEN ATOMIC CHARGES
-----------------------
   0 C :   -0.384438
   1 C :    0.007531
   2 C :   -0.367777
   3 C :   -0.208204
   4 C :    0.168785
   5 C :   -0.214392
   6 C :   -0.195326
   7 C :    0.072350
   8 C :   -0.194405
   9 C :   -0.225501
  10 C :   -0.045191
  11 C :   -0.384874
  12 C :    0.304865
  13 O :   -0.377509
  14 O :   -0.370715
  15 H :    0.118582
  16 H :    0.106333
  17 H :    0.122525
  18 H :    0.073382
  19 H :    0.108748
  20 H :    0.117652
  21 H :    0.116542
  22 H :    0.112569
  23 H :    0.110493
  24 H :    0.134985
  25 H :    0.134381
  26 H :    0.139858
  27 H :    0.131817
  28 H :    0.134515
  29 H :    0.125347
  30 H :    0.129032
  31 H :    0.128139
  32 H :    0.369902
Sum of atomic charges:   -0.0000000

LOEWDIN ATOMIC CHARGES
----------------------
   0 C :   -0.285890
   1 C :   -0.296044
   2 C :   -0.287238
   3 C :   -0.191129
   4 C :   -0.140665
   5 C :   -0.111009
   6 C :   -0.114521
   7 C :   -0.132965
   8 C :   -0.107420
   9 C :   -0.114108
  10 C :   -0.209861
  11 C :   -0.260578
  12 C :   -0.467005
  13 O :    0.102896
  14 O :    0.066689
  15 H :    0.120321
  16 H :    0.120564
  17 H :    0.120012
  18 H :    0.148539
  19 H :    0.120242
  20 H :    0.120126
  21 H :    0.119387
  22 H :    0.145874
  23 H :    0.148135
  24 H :    0.152707
  25 H :    0.153421
  26 H :    0.154698
  27 H :    0.151830
  28 H :    0.178810
  29 H :    0.125648
  30 H :    0.127935
  31 H :    0.125939
  32 H :    0.214659

  Mayer bond orders larger than 0.100000
B(  0-C ,  1-C ) :   0.9679 B(  0-C , 15-H ) :   0.9778 B(  0-C , 16-H ) :   0.9695
B(  0-C , 17-H ) :   0.9735 B(  1-C ,  2-C ) :   0.9451 B(  1-C ,  3-C ) :   0.9520
B(  1-C , 18-H ) :   0.9626 B(  2-C , 19-H ) :   0.9714 B(  2-C , 20-H ) :   0.9778
B(  2-C , 21-H ) :   0.9769 B(  3-C ,  4-C ) :   0.8998 B(  3-C , 22-H ) :   0.9777
B(  3-C , 23-H ) :   0.9605 B(  4-C ,  5-C ) :   1.3308 B(  4-C ,  9-C ) :   1.3358
B(  5-C ,  6-C ) :   1.4166 B(  5-C , 24-H ) :   0.9849 B(  6-C ,  7-C ) :   1.3412
B(  6-C , 25-H ) :   0.9790 B(  7-C ,  8-C ) :   1.3343 B(  7-C , 10-C ) :   0.8960
B(  8-C ,  9-C ) :   1.4178 B(  8-C , 26-H ) :   0.9747 B(  9-C , 27-H ) :   0.9844
B( 10-C , 11-C ) :   0.9460 B( 10-C , 12-C ) :   0.9727 B( 10-C , 28-H ) :   0.9483
B( 11-C , 29-H ) :   0.9687 B( 11-C , 30-H ) :   0.9704 B( 11-C , 31-H ) :   0.9721
B( 12-C , 13-O ) :   1.2192 B( 12-C , 14-O ) :   2.0648 B( 13-O , 32-H ) :   0.8419

FINAL SINGLE POINT ENERGY      -656.561840376587

DIPOLE MOMENT
-------------

Method             : SCF
Type of density    : Electron Density
Multiplicity       :   1
Irrep              :   0
Energy             :  -656.5618403765874973 Eh
Relativity type    :
Basis              : AO
                                X                 Y                 Z
Electronic contribution:     19.022384205      -1.246103430      -3.401162161
Nuclear contribution   :    -20.313786960       1.154086308       5.504811568
                        -----------------------------------------
Total Dipole Moment    :     -1.291402755      -0.092017122       2.103649406
                        -----------------------------------------
Magnitude (a.u.)       :      2.470127335
Magnitude (Debye)      :      6.278564721

Rotational constants in cm-1:             0.046465             0.008520             0.008077
Rotational constants in MHz :          1392.989366           255.431121           242.130447

                             ****ORCA TERMINATED NORMALLY****
TOTAL RUN TIME: 0 days 1 hours 49 minutes 16 seconds 484 msec
