                         Program Version 6.0.0  -   RELEASE   -
|  1> # ORCA input file
|  2> #
|  3> !TPSS 6-311+G** Opt CPCM(WATER)
|  4> * xyz 0 1
|  5>    C       -0.49838         1.45672         0.09896
|  6>    C        0.83636         1.86187         0.13987
|  7>    C        1.85850         0.90964         0.07692
|  8>    C        1.52705        -0.44553         0.10327
|  9>    C        0.19399        -0.85911         0.06588
| 10>    C       -0.81311         0.09845         0.04328
| 11>   Cl       -2.45804        -0.38995        -0.04430
| 12>    O        2.48623        -1.41804         0.15924
| 13>    O        3.19540         1.23915         0.00408
| 14>    C        3.55840         2.36555        -0.71342
| 15>    C        4.59924         3.16189        -0.21840
| 16>    C        4.97545         4.33057        -0.88996
| 17>    C        4.31222         4.69779        -2.05616
| 18>    C        3.30213         3.89395        -2.58058
| 19>    C        2.94419         2.71337        -1.92599
| 20>   Cl        4.74503         6.15332        -2.86475
| 21>   Cl        5.43890         2.74189         1.23085
| 22>    H       -1.28677         2.20447         0.09898
| 23>    H        1.06264         2.92223         0.19335
| 24>    H       -0.04081        -1.92109         0.05235
| 25>    H        3.32941        -0.97731         0.37369
| 26>    H        5.77651         4.95189        -0.49678
| 27>    H        2.78688         4.18033        -3.49530
| 28>    H        2.16802         2.08687        -2.36091
| 29> **                         ****END OF INPUT****
 Total Charge           Charge          ....    0
 Multiplicity           Mult            ....    1
 Number of Electrons    NEL             ....  146
FINAL SINGLE POINT ENERGY     -1992.890950938966
FINAL SINGLE POINT ENERGY     -1992.895499175789
FINAL SINGLE POINT ENERGY     -1992.896931248609
FINAL SINGLE POINT ENERGY     -1992.897156969872
FINAL SINGLE POINT ENERGY     -1992.897257146441
FINAL SINGLE POINT ENERGY     -1992.897305916004
FINAL SINGLE POINT ENERGY     -1992.897378764312
FINAL SINGLE POINT ENERGY     -1992.897461052387
FINAL SINGLE POINT ENERGY     -1992.897567089073
FINAL SINGLE POINT ENERGY     -1992.897648294165
FINAL SINGLE POINT ENERGY     -1992.897695949138
FINAL SINGLE POINT ENERGY     -1992.897699874087
FINAL SINGLE POINT ENERGY     -1992.897701860651
                    ***********************HURRAY********************

CARTESIAN COORDINATES (ANGSTROEM)
---------------------------------
  C     -0.722195    1.332063    0.289057
  C      0.555916    1.893283    0.378001
  C      1.680043    1.089716    0.200826
  C      1.559119   -0.288907   -0.042536
  C      0.284029   -0.862613   -0.128488
  C     -0.828975   -0.038442    0.035193
  Cl    -2.436919   -0.763067   -0.080900
  O      2.655453   -1.086953   -0.197733
  O      2.985803    1.575219    0.354015
  C      3.448238    2.541561   -0.523468
  C      4.596980    3.253975   -0.141917
  C      5.154700    4.221643   -0.978377
  C      4.543910    4.469509   -2.209377
  C      3.405311    3.771984   -2.614843
  C      2.862293    2.804300   -1.765836
  Cl     5.235715    5.698114   -3.269974
  Cl     5.347549    2.921900    1.408856
  H     -1.606679    1.945949    0.420848
  H      0.677694    2.954029    0.580152
  H      0.182178   -1.925886   -0.320408
  H      3.453184   -0.535498   -0.079388
  H      6.039889    4.766215   -0.668610
  H      2.946062    3.970519   -3.577716
  H      1.980143    2.250308   -2.073207

 Multiplicity           Mult            ....    1
 Number of Electrons    NEL             ....  146
 Basis Dimension        Dim             ....  440

ORBITAL ENERGIES
----------------

  NO   OCC          E(Eh)            E(eV)
   0   2.0000    -101.030447     -2749.1782
   1   2.0000    -101.025872     -2749.0537
   2   2.0000    -101.023892     -2748.9999
   3   2.0000     -18.949095      -515.6311
   4   2.0000     -18.927596      -515.0461
   5   2.0000     -10.078840      -274.2592
   6   2.0000     -10.070667      -274.0368
   7   2.0000     -10.067884      -273.9611
   8   2.0000     -10.064014      -273.8557
   9   2.0000     -10.062806      -273.8229
  10   2.0000     -10.061801      -273.7955
  11   2.0000     -10.020748      -272.6784
  12   2.0000     -10.015020      -272.5225
  13   2.0000     -10.014391      -272.5054
  14   2.0000     -10.012504      -272.4541
  15   2.0000     -10.009362      -272.3686
  16   2.0000     -10.006839      -272.2999
  17   2.0000      -9.266850      -252.1638
  18   2.0000      -9.262316      -252.0404
  19   2.0000      -9.260380      -251.9878
  20   2.0000      -7.049360      -191.8228
  21   2.0000      -7.044651      -191.6947
  22   2.0000      -7.042634      -191.6398
  23   2.0000      -7.038242      -191.5203
  24   2.0000      -7.037585      -191.5024
  25   2.0000      -7.033684      -191.3963
  26   2.0000      -7.033272      -191.3851
  27   2.0000      -7.031811      -191.3453
  28   2.0000      -7.031352      -191.3328
  29   2.0000      -1.038575       -28.2611
  30   2.0000      -1.006354       -27.3843
  31   2.0000      -0.853828       -23.2338
  32   2.0000      -0.837861       -22.7994
  33   2.0000      -0.821222       -22.3466
  34   2.0000      -0.787531       -21.4298
  35   2.0000      -0.777318       -21.1519
  36   2.0000      -0.714578       -19.4446
  37   2.0000      -0.711982       -19.3740
  38   2.0000      -0.705935       -19.2095
  39   2.0000      -0.671294       -18.2668
  40   2.0000      -0.605458       -16.4754
  41   2.0000      -0.589366       -16.0375
  42   2.0000      -0.580443       -15.7946
  43   2.0000      -0.559916       -15.2361
  44   2.0000      -0.528696       -14.3865
  45   2.0000      -0.500203       -13.6112
  46   2.0000      -0.472938       -12.8693
  47   2.0000      -0.468011       -12.7352
  48   2.0000      -0.457961       -12.4617
  49   2.0000      -0.440140       -11.9768
  50   2.0000      -0.428164       -11.6509
  51   2.0000      -0.416323       -11.3287
  52   2.0000      -0.411367       -11.1939
  53   2.0000      -0.402625       -10.9560
  54   2.0000      -0.397944       -10.8286
  55   2.0000      -0.381202       -10.3730
  56   2.0000      -0.377041       -10.2598
  57   2.0000      -0.367472        -9.9994
  58   2.0000      -0.364639        -9.9223
  59   2.0000      -0.350593        -9.5401
  60   2.0000      -0.345070        -9.3898
  61   2.0000      -0.338617        -9.2142
  62   2.0000      -0.333021        -9.0620
  63   2.0000      -0.322544        -8.7769
  64   2.0000      -0.298592        -8.1251
  65   2.0000      -0.294546        -8.0150
  66   2.0000      -0.288594        -7.8531
  67   2.0000      -0.288078        -7.8390
  68   2.0000      -0.286077        -7.7846
  69   2.0000      -0.245422        -6.6783
  70   2.0000      -0.237070        -6.4510
  71   2.0000      -0.222311        -6.0494
  72   2.0000      -0.209090        -5.6896
  73   0.0000      -0.065518        -1.7828
  74   0.0000      -0.056741        -1.5440
  75   0.0000      -0.050118        -1.3638
  76   0.0000      -0.040946        -1.1142
  77   0.0000      -0.033980        -0.9246

MULLIKEN ATOMIC CHARGES
-----------------------
   0 C :   -0.695915
   1 C :   -0.092081
   2 C :   -0.145745
   3 C :   -0.498055
   4 C :   -0.316132
   5 C :    0.924427
   6 Cl:    0.436833
   7 O :   -0.257477
   8 O :    0.068806
   9 C :   -2.779444
  10 C :    1.326617
  11 C :   -0.624130
  12 C :    1.242202
  13 C :   -0.487037
  14 C :   -0.403576
  15 Cl:    0.425351
  16 Cl:    0.375150
  17 H :    0.185970
  18 H :    0.188773
  19 H :    0.186373
  20 H :    0.317631
  21 H :    0.208458
  22 H :    0.190363
  23 H :    0.222640
Sum of atomic charges:   -0.0000000

LOEWDIN ATOMIC CHARGES
----------------------
   0 C :   -0.092499
   1 C :   -0.024576
   2 C :   -0.057197
   3 C :   -0.012272
   4 C :   -0.076452
   5 C :   -0.232497
   6 Cl:    0.192484
   7 O :   -0.072140
   8 O :   -0.132858
   9 C :   -0.050866
  10 C :   -0.227765
  11 C :   -0.089175
  12 C :   -0.245457
  13 C :   -0.062607
  14 C :   -0.038228
  15 Cl:    0.199250
  16 Cl:    0.246803
  17 H :    0.094852
  18 H :    0.108770
  19 H :    0.106567
  20 H :    0.150660
  21 H :    0.106830
  22 H :    0.097833
  23 H :    0.110540

  Mayer bond orders larger than 0.100000
B(  0-C ,  1-C ) :   1.2092 B(  0-C ,  3-C ) :  -0.1018 B(  0-C ,  4-C ) :   0.3563
B(  0-C ,  5-C ) :   1.1574 B(  0-C ,  6-Cl) :   0.6954 B(  0-C ,  9-C ) :  -0.1021
B(  0-C , 10-C ) :   0.1350 B(  0-C , 13-C ) :   0.1245 B(  0-C , 14-C ) :  -0.1611
B(  0-C , 17-H ) :   0.9855 B(  0-C , 18-H ) :  -0.1347 B(  1-C ,  2-C ) :   1.1711
B(  1-C ,  3-C ) :   0.9550 B(  1-C ,  5-C ) :  -0.1249 B(  1-C ,  6-Cl) :   0.2042
B(  1-C ,  8-O ) :  -0.1343 B(  1-C ,  9-C ) :   0.4290 B(  1-C , 11-C ) :  -0.2565
B(  1-C , 13-C ) :  -0.1629 B(  1-C , 18-H ) :   1.0552 B(  2-C ,  3-C ) :   1.0763
B(  2-C ,  5-C ) :   0.2090 B(  2-C ,  7-O ) :  -0.5709 B(  2-C ,  8-O ) :   2.0287
B(  2-C , 10-C ) :   0.1409 B(  2-C , 11-C ) :   0.1941 B(  2-C , 13-C ) :   0.2142
B(  2-C , 14-C ) :  -0.3983 B(  2-C , 16-Cl) :  -0.1821 B(  2-C , 20-H ) :  -0.1787
B(  2-C , 23-H ) :   0.1592 B(  3-C ,  4-C ) :   1.0358 B(  3-C ,  5-C ) :  -0.2285
B(  3-C ,  6-Cl) :   0.1846 B(  3-C ,  7-O ) :   2.0685 B(  3-C ,  8-O ) :  -0.8470
B(  3-C ,  9-C ) :   0.1095 B(  3-C , 10-C ) :  -0.3290 B(  3-C , 11-C ) :   0.1144
B(  3-C , 13-C ) :  -0.2289 B(  3-C , 14-C ) :   0.2442 B(  3-C , 16-Cl) :   0.1121
B(  3-C , 20-H ) :   0.1988 B(  4-C ,  5-C ) :   1.5322 B(  4-C ,  6-Cl) :   0.6089
B(  4-C ,  7-O ) :  -0.4344 B(  4-C ,  8-O ) :  -0.1536 B(  4-C ,  9-C ) :  -0.3031
B(  4-C , 11-C ) :   0.1221 B(  4-C , 19-H ) :   0.9321 B(  5-C ,  6-Cl) :  -0.8812
B(  5-C , 14-C ) :   0.1791 B(  7-O ,  9-C ) :   0.2500 B(  7-O , 14-C ) :  -0.1779
B(  7-O , 20-H ) :   0.8410 B(  8-O ,  9-C ) :   1.6062 B(  8-O , 10-C ) :  -0.7427
B(  9-C , 10-C ) :   2.1061 B(  9-C , 11-C ) :  -1.6087 B(  9-C , 12-C ) :  -0.7212
B(  9-C , 13-C ) :  -0.5787 B(  9-C , 14-C ) :   1.8132 B(  9-C , 16-Cl) :   1.6199
B(  9-C , 18-H ) :   0.1164 B(  9-C , 21-H ) :   0.2018 B( 10-C , 11-C ) :   3.2635
B( 10-C , 12-C ) :   0.1083 B( 10-C , 13-C ) :   0.4569 B( 10-C , 14-C ) :   1.3235
B( 10-C , 15-Cl) :   0.2281 B( 10-C , 16-Cl) :  -1.5791 B( 10-C , 21-H ) :  -0.1021
B( 11-C , 12-C ) :   0.8669 B( 11-C , 14-C ) :  -0.9230 B( 11-C , 15-Cl) :   0.7450
B( 11-C , 16-Cl) :   0.5259 B( 11-C , 21-H ) :   0.9854 B( 12-C , 13-C ) :   1.1784
B( 12-C , 15-Cl) :  -1.0770 B( 12-C , 16-Cl) :   0.1301 B( 12-C , 21-H ) :  -0.1259
B( 13-C , 14-C ) :   1.3177 B( 13-C , 15-Cl) :   0.6823 B( 13-C , 22-H ) :   0.9839
B( 13-C , 23-H ) :  -0.1593 B( 14-C , 15-Cl) :   0.1483 B( 14-C , 16-Cl) :   0.3527
B( 14-C , 23-H ) :   1.1074

FINAL SINGLE POINT ENERGY     -1992.897702020340

DIPOLE MOMENT
-------------

Method             : SCF
Type of density    : Electron Density
Multiplicity       :   1
Irrep              :   0
Energy             : -1992.8977020203396933 Eh
Relativity type    :
Basis              : AO
                                X                 Y                 Z
Electronic contribution:      4.335002742       3.712784490       0.943968624
Nuclear contribution   :     -4.340208821      -3.183771698      -1.315947366
                        -----------------------------------------
Total Dipole Moment    :     -0.005206079       0.529012793      -0.371978742
                        -----------------------------------------
Magnitude (a.u.)       :      0.646722369
Magnitude (Debye)      :      1.643837625

Rotational constants in cm-1:             0.021556             0.004940             0.004362
Rotational constants in MHz :           646.237434           148.094203           130.755080

                             ****ORCA TERMINATED NORMALLY****
TOTAL RUN TIME: 0 days 0 hours 20 minutes 1 seconds 416 msec
