                         Program Version 6.0.0  -   RELEASE   -
|  1> # ORCA input file
|  2> #
|  3> !TPSS def2-TZVP Opt CPCM(WATER)
|  4> * xyz 0 1
|  5>    H        2.19682        -0.91154         0.64044
|  6>    C        2.08274        -0.07230        -0.06151
|  7>    C        0.61781         0.37039        -0.01313
|  8>    C        2.95733         1.04661         0.51400
|  9>    O        4.28094         0.77780         0.52831
| 10>    O        2.52215         2.08691         0.98966
| 11>    C        2.46394        -0.56230        -1.45986
| 12>    C        2.32706        -1.92842        -1.78584
| 13>    C        2.67594        -2.40638        -3.06924
| 14>    C        3.08558        -1.51093        -4.05073
| 15>    C        3.20379        -0.15525        -3.74761
| 16>    C        2.90509         0.31130        -2.46255
| 17>    C        2.63455        -3.85377        -3.42227
| 18>    O        2.31712        -4.18658        -4.56116
| 19>    C        3.03282        -4.89946        -2.43983
| 20>    C        3.93140        -4.62386        -1.40002
| 21>    C        4.30356        -5.63104        -0.51010
| 22>    C        3.79973        -6.92143        -0.66808
| 23>    C        2.92349        -7.20672        -1.71455
| 24>    C        2.54088        -6.19946        -2.60247
| 25>    H        0.34865         0.71015         0.99629
| 26>    H       -0.06373        -0.44391        -0.27769
| 27>    H        0.43042         1.20885        -0.69604
| 28>    H        4.52517        -0.07595         0.12336
| 29>    H        1.94296        -2.62253        -1.04434
| 30>    H        3.32225        -1.86705        -5.05606
| 31>    H        3.53216         0.53830        -4.52112
| 32>    H        3.01182         1.37929        -2.26715
| 33>    H        4.36991        -3.63997        -1.27773
| 34>    H        4.99900        -5.41307         0.29648
| 35>    H        4.10396        -7.70787         0.01569
| 36>    H        2.54331        -8.21744        -1.84315
| 37>    H        1.86720        -6.43272        -3.42364
| 38> *
| 39>
| 40>                          ****END OF INPUT****
 Total Charge           Charge          ....    0
 Multiplicity           Mult            ....    1
 Number of Electrons    NEL             ....  134
FINAL SINGLE POINT ENERGY      -844.295433592630
FINAL SINGLE POINT ENERGY      -844.298722043689
FINAL SINGLE POINT ENERGY      -844.299079845660
FINAL SINGLE POINT ENERGY      -844.299780613595
FINAL SINGLE POINT ENERGY      -844.299891206095
FINAL SINGLE POINT ENERGY      -844.299978700577
FINAL SINGLE POINT ENERGY      -844.300078908770
FINAL SINGLE POINT ENERGY      -844.300165779728
FINAL SINGLE POINT ENERGY      -844.300202332616
FINAL SINGLE POINT ENERGY      -844.300208162216
FINAL SINGLE POINT ENERGY      -844.300224798102
FINAL SINGLE POINT ENERGY      -844.300251900378
FINAL SINGLE POINT ENERGY      -844.300256898598
FINAL SINGLE POINT ENERGY      -844.300270779940
FINAL SINGLE POINT ENERGY      -844.300274598971
                    ***********************HURRAY********************

CARTESIAN COORDINATES (ANGSTROEM)
---------------------------------
  H      1.922684   -1.000455    0.545119
  C      1.971650   -0.110569   -0.096266
  C      0.602827    0.585991   -0.090606
  C      3.053031    0.790466    0.507311
  O      4.261114    0.208988    0.728144
  O      2.907310    1.961835    0.795645
  C      2.383768   -0.575744   -1.491260
  C      2.452323   -1.940907   -1.786231
  C      2.777054   -2.385268   -3.078003
  C      3.042194   -1.441944   -4.082768
  C      3.003540   -0.081642   -3.789527
  C      2.671980    0.350786   -2.503583
  C      2.772389   -3.836453   -3.439518
  O      2.467814   -4.181753   -4.587084
  C      3.130842   -4.866814   -2.419639
  C      4.061439   -4.616328   -1.397334
  C      4.422068   -5.631943   -0.511490
  C      3.841353   -6.897210   -0.622921
  C      2.909912   -7.153540   -1.635478
  C      2.567701   -6.149519   -2.536127
  H      0.326353    0.876452    0.927008
  H     -0.156215   -0.098469   -0.480100
  H      0.618559    1.483584   -0.715207
  H      4.248545   -0.729315    0.457205
  H      2.218327   -2.663288   -1.008918
  H      3.287236   -1.787474   -5.082591
  H      3.229161    0.647622   -4.562527
  H      2.635564    1.416473   -2.289468
  H      4.525165   -3.638071   -1.313093
  H      5.156048   -5.435094    0.264910
  H      4.114968   -7.683676    0.075250
  H      2.455599   -8.136805   -1.720638
  H      1.853519   -6.340269   -3.331854

 Multiplicity           Mult            ....    1
 Number of Electrons    NEL             ....  134
 Basis Dimension        Dim             ....  673

ORBITAL ENERGIES
----------------

  NO   OCC          E(Eh)            E(eV)
   0   2.0000     -18.934094      -515.2229
   1   2.0000     -18.880646      -513.7685
   2   2.0000     -18.878318      -513.7052
   3   2.0000     -10.119373      -275.3621
   4   2.0000     -10.079689      -274.2823
   5   2.0000     -10.018958      -272.6297
   6   2.0000     -10.013311      -272.4761
   7   2.0000     -10.008531      -272.3460
   8   2.0000     -10.006524      -272.2913
   9   2.0000     -10.004972      -272.2491
  10   2.0000     -10.002952      -272.1942
  11   2.0000     -10.002528      -272.1826
  12   2.0000     -10.001436      -272.1529
  13   2.0000     -10.000135      -272.1175
  14   2.0000     -10.000068      -272.1157
  15   2.0000      -9.999509      -272.1005
  16   2.0000      -9.997114      -272.0353
  17   2.0000      -9.996951      -272.0309
  18   2.0000      -9.983442      -271.6633
  19   2.0000      -1.035375       -28.1740
  20   2.0000      -0.972808       -26.4715
  21   2.0000      -0.956958       -26.0402
  22   2.0000      -0.815364       -22.1872
  23   2.0000      -0.804978       -21.9046
  24   2.0000      -0.754261       -20.5245
  25   2.0000      -0.723394       -19.6846
  26   2.0000      -0.701474       -19.0881
  27   2.0000      -0.697572       -18.9819
  28   2.0000      -0.685214       -18.6456
  29   2.0000      -0.614297       -16.7159
  30   2.0000      -0.608816       -16.5667
  31   2.0000      -0.573532       -15.6066
  32   2.0000      -0.568461       -15.4686
  33   2.0000      -0.564154       -15.3514
  34   2.0000      -0.548500       -14.9254
  35   2.0000      -0.515182       -14.0188
  36   2.0000      -0.490816       -13.3558
  37   2.0000      -0.468745       -12.7552
  38   2.0000      -0.461633       -12.5617
  39   2.0000      -0.439012       -11.9461
  40   2.0000      -0.431901       -11.7526
  41   2.0000      -0.420611       -11.4454
  42   2.0000      -0.418560       -11.3896
  43   2.0000      -0.412667       -11.2292
  44   2.0000      -0.403553       -10.9812
  45   2.0000      -0.395752       -10.7690
  46   2.0000      -0.388680       -10.5765
  47   2.0000      -0.387707       -10.5501
  48   2.0000      -0.380993       -10.3673
  49   2.0000      -0.379432       -10.3249
  50   2.0000      -0.365164        -9.9366
  51   2.0000      -0.358854        -9.7649
  52   2.0000      -0.343167        -9.3380
  53   2.0000      -0.335445        -9.1279
  54   2.0000      -0.331776        -9.0281
  55   2.0000      -0.324155        -8.8207
  56   2.0000      -0.321861        -8.7583
  57   2.0000      -0.320113        -8.7107
  58   2.0000      -0.310124        -8.4389
  59   2.0000      -0.306049        -8.3280
  60   2.0000      -0.290604        -7.9077
  61   2.0000      -0.254130        -6.9152
  62   2.0000      -0.245703        -6.6859
  63   2.0000      -0.243394        -6.6231
  64   2.0000      -0.240948        -6.5565
  65   2.0000      -0.233786        -6.3616
  66   2.0000      -0.221621        -6.0306
  67   0.0000      -0.103159        -2.8071
  68   0.0000      -0.056421        -1.5353
  69   0.0000      -0.052970        -1.4414
  70   0.0000      -0.043760        -1.1908
  71   0.0000      -0.030803        -0.8382

MULLIKEN ATOMIC CHARGES
-----------------------
   0 H :    0.131277
   1 C :   -0.012668
   2 C :   -0.393999
   3 C :    0.264260
   4 O :   -0.353284
   5 O :   -0.355644
   6 C :    0.083239
   7 C :   -0.309975
   8 C :    0.188499
   9 C :   -0.193269
  10 C :   -0.124320
  11 C :   -0.171254
  12 C :    0.221638
  13 O :   -0.377697
  14 C :    0.141495
  15 C :   -0.213280
  16 C :   -0.133746
  17 C :   -0.107843
  18 C :   -0.127598
  19 C :   -0.194469
  20 H :    0.136597
  21 H :    0.134077
  22 H :    0.133492
  23 H :    0.369509
  24 H :    0.152363
  25 H :    0.130463
  26 H :    0.139096
  27 H :    0.134656
  28 H :    0.160986
  29 H :    0.138728
  30 H :    0.141075
  31 H :    0.138552
  32 H :    0.129043
Sum of atomic charges:   -0.0000000

LOEWDIN ATOMIC CHARGES
----------------------
   0 H :    0.180480
   1 C :   -0.208657
   2 C :   -0.256735
   3 C :   -0.465896
   4 O :    0.104358
   5 O :    0.073986
   6 C :   -0.122583
   7 C :   -0.059027
   8 C :   -0.115202
   9 C :   -0.083891
  10 C :   -0.124529
  11 C :   -0.080783
  12 C :   -0.238471
  13 O :    0.081838
  14 C :   -0.120927
  15 C :   -0.091284
  16 C :   -0.132524
  17 C :   -0.120063
  18 C :   -0.131520
  19 C :   -0.087101
  20 H :    0.127383
  21 H :    0.128677
  22 H :    0.127101
  23 H :    0.217074
  24 H :    0.164033
  25 H :    0.154867
  26 H :    0.153257
  27 H :    0.158510
  28 H :    0.158746
  29 H :    0.151729
  30 H :    0.151557
  31 H :    0.151474
  32 H :    0.154122

  Mayer bond orders larger than 0.100000
B(  0-H ,  1-C ) :   0.9005 B(  1-C ,  2-C ) :   0.9939 B(  1-C ,  3-C ) :   0.9838
B(  1-C ,  6-C ) :   0.9303 B(  2-C , 20-H ) :   0.9610 B(  2-C , 21-H ) :   0.9612
B(  2-C , 22-H ) :   0.9604 B(  3-C ,  4-O ) :   1.2293 B(  3-C ,  5-O ) :   2.0546
B(  4-O , 23-H ) :   0.8382 B(  6-C ,  7-C ) :   1.3389 B(  6-C , 11-C ) :   1.3275
B(  7-C ,  8-C ) :   1.3106 B(  7-C , 24-H ) :   0.9842 B(  8-C ,  9-C ) :   1.3070
B(  8-C , 12-C ) :   0.9637 B(  9-C , 10-C ) :   1.3939 B(  9-C , 25-H ) :   0.9811
B( 10-C , 11-C ) :   1.3682 B( 10-C , 26-H ) :   0.9805 B( 11-C , 27-H ) :   0.9775
B( 12-C , 13-O ) :   1.9578 B( 12-C , 14-C ) :   0.9878 B( 14-C , 15-C ) :   1.3085
B( 14-C , 19-C ) :   1.3103 B( 15-C , 16-C ) :   1.3953 B( 15-C , 28-H ) :   0.9706
B( 16-C , 17-C ) :   1.3790 B( 16-C , 29-H ) :   0.9771 B( 17-C , 18-C ) :   1.3620
B( 17-C , 30-H ) :   0.9715 B( 18-C , 19-C ) :   1.4211 B( 18-C , 31-H ) :   0.9774
B( 19-C , 32-H ) :   0.9803

FINAL SINGLE POINT ENERGY      -844.300275398969

DIPOLE MOMENT
-------------

Method             : SCF
Type of density    : Electron Density
Multiplicity       :   1
Irrep              :   0
Energy             :  -844.3002753989692337 Eh
Relativity type    :
Basis              : AO
                                X                 Y                 Z
Electronic contribution:      4.029042312      -1.251773303      -3.388812640
Nuclear contribution   :     -3.993816681      -0.311563686       4.375596541
                        -----------------------------------------
Total Dipole Moment    :      0.035225631      -1.563336989       0.986783902
                        -----------------------------------------
Magnitude (a.u.)       :      1.849055395
Magnitude (Debye)      :      4.699925305

Rotational constants in cm-1:             0.020938             0.007100             0.005913
Rotational constants in MHz :           627.703197           212.853267           177.257181

                             ****ORCA TERMINATED NORMALLY****
TOTAL RUN TIME: 0 days 0 hours 31 minutes 2 seconds 61 msec
