                         Program Version 6.0.0  -   RELEASE   -
|  1> # ORCA input file
|  2> #
|  3> !TPSS STO-3G Opt CPCM(WATER)
|  4> * xyz 0 1
|  5>    O        3.20532         0.77222        -3.48165
|  6>    C        3.01992        -0.42363        -2.87260
|  7>    O        2.60439        -1.40765        -3.47515
|  8>    C        3.32048        -0.40706        -1.39156
|  9>    C        4.77373        -0.12881        -1.08244
| 10>    C        5.66943        -1.21342        -1.10651
| 11>    C        7.03233        -1.02123        -0.89021
| 12>    C        7.51453         0.25274        -0.62393
| 13>    C        6.63498         1.33431        -0.58478
| 14>    C        5.26576         1.17391        -0.86041
| 15>    N        4.37299         2.29124        -0.86707
| 16>    C        4.78516         3.66554        -0.98266
| 17>    C        5.63181         4.12934        -2.01264
| 18>   Cl        6.08405         3.13842        -3.35906
| 19>    C        6.11423         5.44479        -2.01214
| 20>    C        5.70652         6.34622        -1.03224
| 21>    C        4.79176         5.94154        -0.06385
| 22>    C        4.33591         4.61788        -0.04136
| 23>   Cl        3.21047         4.17011         1.19560
| 24>    H        3.58943         1.44889        -2.88309
| 25>    H        3.04405        -1.38942        -0.98093
| 26>    H        2.64728         0.30494        -0.90399
| 27>    H        5.30989        -2.22054        -1.31624
| 28>    H        7.71565        -1.86518        -0.93248
| 29>    H        8.57673         0.41196        -0.45771
| 30>    H        7.04962         2.31347        -0.36106
| 31>    H        3.79458         2.21395        -0.02113
| 32>    H        6.80603         5.77305        -2.78574
| 33>    H        6.08452         7.36622        -1.03898
| 34>    H        4.44479         6.65940         0.67650
| 35> *
| 36>
| 37>                          ****END OF INPUT****
 Total Charge           Charge          ....    0
 Multiplicity           Mult            ....    1
 Number of Electrons    NEL             ....  152
FINAL SINGLE POINT ENERGY     -1646.596757630286
FINAL SINGLE POINT ENERGY     -1646.628523076423
FINAL SINGLE POINT ENERGY     -1646.635966908018
FINAL SINGLE POINT ENERGY     -1646.640147440743
FINAL SINGLE POINT ENERGY     -1646.642751534754
FINAL SINGLE POINT ENERGY     -1646.646105853558
FINAL SINGLE POINT ENERGY     -1646.648044285575
FINAL SINGLE POINT ENERGY     -1646.649032036122
FINAL SINGLE POINT ENERGY     -1646.649839504225
FINAL SINGLE POINT ENERGY     -1646.650097299327
FINAL SINGLE POINT ENERGY     -1646.650096607078
FINAL SINGLE POINT ENERGY     -1646.650203772747
FINAL SINGLE POINT ENERGY     -1646.650217374037
FINAL SINGLE POINT ENERGY     -1646.650224919336
FINAL SINGLE POINT ENERGY     -1646.650226872276
                    ***********************HURRAY********************

CARTESIAN COORDINATES (ANGSTROEM)
---------------------------------
  O      3.033507    1.352769   -3.195287
  C      2.908909   -0.017481   -2.930636
  O      2.443433   -0.821649   -3.789602
  C      3.350830   -0.491770   -1.446840
  C      4.829727   -0.236824   -1.108219
  C      5.751540   -1.310688   -0.996001
  C      7.110497   -1.080363   -0.683524
  C      7.575019    0.236204   -0.464863
  C      6.680367    1.326343   -0.563760
  C      5.325972    1.086781   -0.891142
  N      4.315175    2.200124   -1.061763
  C      4.834833    3.582994   -1.076728
  C      5.637817    4.102986   -2.139460
  Cl     6.143266    3.008865   -3.492565
  C      6.042444    5.459019   -2.174713
  C      5.623846    6.340275   -1.150489
  C      4.803992    5.877746   -0.094295
  C      4.426645    4.516551   -0.072697
  Cl     3.369177    3.893505    1.268817
  H      3.513845    1.765575   -2.321899
  H      3.144757   -1.576656   -1.375978
  H      2.696529    0.032141   -0.717674
  H      5.390283   -2.340540   -1.156493
  H      7.806779   -1.931857   -0.604969
  H      8.632218    0.420735   -0.211846
  H      7.031105    2.356096   -0.386969
  H      3.646098    2.167123   -0.227154
  H      6.669541    5.818221   -3.007730
  H      5.932762    7.398809   -1.179816
  H      4.465429    6.558164    0.704787

 Multiplicity           Mult            ....    1
 Number of Electrons    NEL             ....  152
 Basis Dimension        Dim             ....  114

ORBITAL ENERGIES
----------------

  NO   OCC          E(Eh)            E(eV)
   0   2.0000     -99.947876     -2719.7200
   1   2.0000     -99.937812     -2719.4461
   2   2.0000     -18.641818      -507.2697
   3   2.0000     -18.596084      -506.0252
   4   2.0000     -14.009979      -381.2309
   5   2.0000      -9.913888      -269.7706
   6   2.0000      -9.910118      -269.6680
   7   2.0000      -9.909842      -269.6605
   8   2.0000      -9.880220      -268.8545
   9   2.0000      -9.873888      -268.6822
  10   2.0000      -9.865229      -268.4465
  11   2.0000      -9.863832      -268.4085
  12   2.0000      -9.858872      -268.2735
  13   2.0000      -9.842698      -267.8334
  14   2.0000      -9.841147      -267.7912
  15   2.0000      -9.835467      -267.6367
  16   2.0000      -9.830154      -267.4921
  17   2.0000      -9.828506      -267.4472
  18   2.0000      -9.827762      -267.4270
  19   2.0000      -9.055913      -246.4239
  20   2.0000      -9.046286      -246.1620
  21   2.0000      -6.861581      -186.7131
  22   2.0000      -6.852343      -186.4617
  23   2.0000      -6.844862      -186.2582
  24   2.0000      -6.844640      -186.2521
  25   2.0000      -6.835339      -185.9990
  26   2.0000      -6.834534      -185.9771
  27   2.0000      -0.904873       -24.6228
  28   2.0000      -0.857601       -23.3365
  29   2.0000      -0.832934       -22.6653
  30   2.0000      -0.788500       -21.4562
  31   2.0000      -0.760824       -20.7031
  32   2.0000      -0.745622       -20.2894
  33   2.0000      -0.718654       -19.5556
  34   2.0000      -0.677880       -18.4461
  35   2.0000      -0.660570       -17.9750
  36   2.0000      -0.643934       -17.5223
  37   2.0000      -0.635886       -17.3033
  38   2.0000      -0.599074       -16.3016
  39   2.0000      -0.541484       -14.7345
  40   2.0000      -0.529517       -14.4089
  41   2.0000      -0.513053       -13.9609
  42   2.0000      -0.501745       -13.6532
  43   2.0000      -0.452610       -12.3161
  44   2.0000      -0.445423       -12.1206
  45   2.0000      -0.430556       -11.7160
  46   2.0000      -0.418019       -11.3749
  47   2.0000      -0.401586       -10.9277
  48   2.0000      -0.388113       -10.5611
  49   2.0000      -0.383723       -10.4416
  50   2.0000      -0.377427       -10.2703
  51   2.0000      -0.362926        -9.8757
  52   2.0000      -0.360763        -9.8169
  53   2.0000      -0.356516        -9.7013
  54   2.0000      -0.338814        -9.2196
  55   2.0000      -0.326941        -8.8965
  56   2.0000      -0.320701        -8.7267
  57   2.0000      -0.314896        -8.5688
  58   2.0000      -0.302385        -8.2283
  59   2.0000      -0.285538        -7.7699
  60   2.0000      -0.281503        -7.6601
  61   2.0000      -0.272640        -7.4189
  62   2.0000      -0.268477        -7.3056
  63   2.0000      -0.255289        -6.9468
  64   2.0000      -0.246607        -6.7105
  65   2.0000      -0.237801        -6.4709
  66   2.0000      -0.236809        -6.4439
  67   2.0000      -0.234927        -6.3927
  68   2.0000      -0.222929        -6.0662
  69   2.0000      -0.192368        -5.2346
  70   2.0000      -0.180725        -4.9178
  71   2.0000      -0.178822        -4.8660
  72   2.0000      -0.172067        -4.6822
  73   2.0000      -0.133288        -3.6269
  74   2.0000      -0.110004        -2.9934
  75   2.0000      -0.080536        -2.1915
  76   0.0000       0.017598         0.4789
  77   0.0000       0.019875         0.5408
  78   0.0000       0.041478         1.1287
  79   0.0000       0.047524         1.2932
  80   0.0000       0.051334         1.3969

MULLIKEN ATOMIC CHARGES
-----------------------
   0 O :   -0.242888
   1 C :    0.164642
   2 O :   -0.239713
   3 C :   -0.155985
   4 C :   -0.008191
   5 C :   -0.076446
   6 C :   -0.078238
   7 C :   -0.076221
   8 C :   -0.082970
   9 C :    0.060355
  10 N :   -0.277806
  11 C :    0.077493
  12 C :    0.027368
  13 Cl:   -0.111710
  14 C :   -0.061051
  15 C :   -0.060315
  16 C :   -0.061512
  17 C :    0.025461
  18 Cl:   -0.110173
  19 H :    0.213873
  20 H :    0.083241
  21 H :    0.083938
  22 H :    0.084097
  23 H :    0.084510
  24 H :    0.085954
  25 H :    0.089993
  26 H :    0.230268
  27 H :    0.111964
  28 H :    0.106581
  29 H :    0.113482
Sum of atomic charges:    0.0000000

LOEWDIN ATOMIC CHARGES
----------------------
   0 O :   -0.173500
   1 C :    0.096953
   2 O :   -0.195443
   3 C :   -0.094625
   4 C :   -0.006887
   5 C :   -0.044139
   6 C :   -0.042152
   7 C :   -0.040484
   8 C :   -0.055009
   9 C :    0.043584
  10 N :   -0.133339
  11 C :    0.041565
  12 C :    0.014173
  13 Cl:   -0.079711
  14 C :   -0.033551
  15 C :   -0.022954
  16 C :   -0.033708
  17 C :    0.011737
  18 Cl:   -0.074540
  19 H :    0.160050
  20 H :    0.047218
  21 H :    0.048809
  22 H :    0.047133
  23 H :    0.047410
  24 H :    0.048531
  25 H :    0.052768
  26 H :    0.164236
  27 H :    0.069783
  28 H :    0.064971
  29 H :    0.071122

  Mayer bond orders larger than 0.100000
B(  0-O ,  1-C ) :   1.1668 B(  0-O ,  2-O ) :   0.2741 B(  0-O , 19-H ) :   0.7246
B(  1-C ,  2-O ) :   1.8371 B(  1-C ,  3-C ) :   0.8506 B(  3-C ,  4-C ) :   0.9998
B(  3-C , 20-H ) :   0.9649 B(  3-C , 21-H ) :   0.9522 B(  4-C ,  5-C ) :   1.4001
B(  4-C ,  7-C ) :   0.1076 B(  4-C ,  9-C ) :   1.3471 B(  5-C ,  6-C ) :   1.4265
B(  5-C ,  8-C ) :   0.1066 B(  5-C , 22-H ) :   0.9575 B(  6-C ,  7-C ) :   1.4244
B(  6-C ,  9-C ) :   0.1054 B(  6-C , 23-H ) :   0.9595 B(  7-C ,  8-C ) :   1.4173
B(  7-C , 24-H ) :   0.9592 B(  8-C ,  9-C ) :   1.4095 B(  8-C , 25-H ) :   0.9537
B(  9-C , 10-N ) :   0.9268 B( 10-N , 11-C ) :   1.0134 B( 10-N , 19-H ) :   0.1951
B( 10-N , 26-H ) :   0.8695 B( 11-C , 12-C ) :   1.3346 B( 11-C , 17-C ) :   1.3357
B( 12-C , 13-Cl) :   0.9612 B( 12-C , 14-C ) :   1.4050 B( 12-C , 16-C ) :   0.1008
B( 14-C , 15-C ) :   1.4168 B( 14-C , 27-H ) :   0.9530 B( 15-C , 16-C ) :   1.4134
B( 15-C , 28-H ) :   0.9538 B( 16-C , 17-C ) :   1.4078 B( 16-C , 29-H ) :   0.9525
B( 17-C , 18-Cl) :   0.9485

FINAL SINGLE POINT ENERGY     -1646.650227504523

DIPOLE MOMENT
-------------

Method             : SCF
Type of density    : Electron Density
Multiplicity       :   1
Irrep              :   0
Energy             : -1646.6502275045234001 Eh
Relativity type    :
Basis              : AO
                                X                 Y                 Z
Electronic contribution:     -4.004939102       8.792600818      -1.547619268
Nuclear contribution   :      5.212898990      -6.894085002       3.546740700
                        -----------------------------------------
Total Dipole Moment    :      1.207959887       1.898515816       1.999121432
                        -----------------------------------------
Magnitude (a.u.)       :      3.009986029
Magnitude (Debye)      :      7.650776467

Rotational constants in cm-1:             0.013461             0.007428             0.007299
Rotational constants in MHz :           403.535980           222.689034           218.829591

                             ****ORCA TERMINATED NORMALLY****
TOTAL RUN TIME: 0 days 0 hours 4 minutes 34 seconds 721 msec
