                         Program Version 6.0.0  -   RELEASE   -
|  1> # ORCA input file
|  2> #
|  3> !PBE 6-311+G** Opt CPCM(WATER)
|  4> * xyz 0 1
|  5>    O        3.20532         0.77222        -3.48165
|  6>    C        3.01992        -0.42363        -2.87260
|  7>    O        2.60439        -1.40765        -3.47515
|  8>    C        3.32048        -0.40706        -1.39156
|  9>    C        4.77373        -0.12881        -1.08244
| 10>    C        5.66943        -1.21342        -1.10651
| 11>    C        7.03233        -1.02123        -0.89021
| 12>    C        7.51453         0.25274        -0.62393
| 13>    C        6.63498         1.33431        -0.58478
| 14>    C        5.26576         1.17391        -0.86041
| 15>    N        4.37299         2.29124        -0.86707
| 16>    C        4.78516         3.66554        -0.98266
| 17>    C        5.63181         4.12934        -2.01264
| 18>   Cl        6.08405         3.13842        -3.35906
| 19>    C        6.11423         5.44479        -2.01214
| 20>    C        5.70652         6.34622        -1.03224
| 21>    C        4.79176         5.94154        -0.06385
| 22>    C        4.33591         4.61788        -0.04136
| 23>   Cl        3.21047         4.17011         1.19560
| 24>    H        3.58943         1.44889        -2.88309
| 25>    H        3.04405        -1.38942        -0.98093
| 26>    H        2.64728         0.30494        -0.90399
| 27>    H        5.30989        -2.22054        -1.31624
| 28>    H        7.71565        -1.86518        -0.93248
| 29>    H        8.57673         0.41196        -0.45771
| 30>    H        7.04962         2.31347        -0.36106
| 31>    H        3.79458         2.21395        -0.02113
| 32>    H        6.80603         5.77305        -2.78574
| 33>    H        6.08452         7.36622        -1.03898
| 34>    H        4.44479         6.65940         0.67650
| 35> *
| 36>
| 37>                          ****END OF INPUT****
 Total Charge           Charge          ....    0
 Multiplicity           Mult            ....    1
 Number of Electrons    NEL             ....  152
FINAL SINGLE POINT ENERGY     -1664.694628409126
FINAL SINGLE POINT ENERGY     -1664.701162432957
FINAL SINGLE POINT ENERGY     -1664.703677977615
FINAL SINGLE POINT ENERGY     -1664.705041605517
FINAL SINGLE POINT ENERGY     -1664.706137121677
FINAL SINGLE POINT ENERGY     -1664.706445103720
FINAL SINGLE POINT ENERGY     -1664.706671724283
FINAL SINGLE POINT ENERGY     -1664.706789437991
FINAL SINGLE POINT ENERGY     -1664.706885285955
FINAL SINGLE POINT ENERGY     -1664.706915512944
FINAL SINGLE POINT ENERGY     -1664.706930184944
FINAL SINGLE POINT ENERGY     -1664.706935011522
                    ***********************HURRAY********************

CARTESIAN COORDINATES (ANGSTROEM)
---------------------------------
  O      3.134493    1.135948   -3.305418
  C      2.949421   -0.129677   -2.885278
  O      2.453303   -0.957769   -3.636494
  C      3.361766   -0.447754   -1.445457
  C      4.818181   -0.165464   -1.115796
  C      5.713518   -1.238302   -0.979598
  C      7.063708   -1.030173   -0.672755
  C      7.533859    0.273609   -0.481486
  C      6.657620    1.358740   -0.597905
  C      5.311261    1.146218   -0.921064
  N      4.379179    2.239829   -1.081373
  C      4.835057    3.583414   -1.071985
  C      5.610358    4.120384   -2.124516
  Cl     6.048020    3.100269   -3.482398
  C      6.021681    5.454626   -2.136185
  C      5.639703    6.303901   -1.093516
  C      4.853151    5.821359   -0.044164
  C      4.472555    4.478414   -0.039906
  Cl     3.495171    3.883997    1.295956
  H      3.560985    1.683168   -2.574198
  H      3.151097   -1.512197   -1.283518
  H      2.684276    0.117757   -0.779978
  H      5.336603   -2.255270   -1.119342
  H      7.740169   -1.882549   -0.579078
  H      8.582093    0.453444   -0.231734
  H      7.021401    2.375272   -0.431805
  H      3.589213    2.134385   -0.432633
  H      6.623251    5.823560   -2.967944
  H      5.951367    7.349914   -1.103020
  H      4.543878    6.474146    0.773079

 Multiplicity           Mult            ....    1
 Number of Electrons    NEL             ....  152
 Basis Dimension        Dim             ....  500

ORBITAL ENERGIES
----------------

  NO   OCC          E(Eh)            E(eV)
   0   2.0000    -100.713687     -2740.5588
   1   2.0000    -100.709340     -2740.4405
   2   2.0000     -18.787137      -511.2240
   3   2.0000     -18.742044      -509.9970
   4   2.0000     -14.035411      -381.9229
   5   2.0000     -10.017087      -272.5788
   6   2.0000      -9.967603      -271.2323
   7   2.0000      -9.966894      -271.2130
   8   2.0000      -9.961324      -271.0614
   9   2.0000      -9.942909      -270.5603
  10   2.0000      -9.913942      -269.7721
  11   2.0000      -9.909574      -269.6532
  12   2.0000      -9.909242      -269.6442
  13   2.0000      -9.909210      -269.6433
  14   2.0000      -9.906848      -269.5790
  15   2.0000      -9.896204      -269.2894
  16   2.0000      -9.895602      -269.2730
  17   2.0000      -9.894681      -269.2480
  18   2.0000      -9.891038      -269.1488
  19   2.0000      -9.206716      -250.5275
  20   2.0000      -9.202604      -250.4156
  21   2.0000      -7.033522      -191.3919
  22   2.0000      -7.029501      -191.2825
  23   2.0000      -7.022382      -191.0887
  24   2.0000      -7.022054      -191.0798
  25   2.0000      -7.018352      -190.9791
  26   2.0000      -7.017671      -190.9605
  27   2.0000      -1.013313       -27.5736
  28   2.0000      -0.935311       -25.4511
  29   2.0000      -0.899059       -24.4647
  30   2.0000      -0.830956       -22.6115
  31   2.0000      -0.815344       -22.1866
  32   2.0000      -0.786730       -21.4080
  33   2.0000      -0.765628       -20.8338
  34   2.0000      -0.724994       -19.7281
  35   2.0000      -0.699212       -19.0265
  36   2.0000      -0.676559       -18.4101
  37   2.0000      -0.670543       -18.2464
  38   2.0000      -0.648928       -17.6582
  39   2.0000      -0.583036       -15.8652
  40   2.0000      -0.570023       -15.5111
  41   2.0000      -0.562464       -15.3054
  42   2.0000      -0.548114       -14.9149
  43   2.0000      -0.539837       -14.6897
  44   2.0000      -0.497624       -13.5410
  45   2.0000      -0.493629       -13.4323
  46   2.0000      -0.471285       -12.8243
  47   2.0000      -0.457327       -12.4445
  48   2.0000      -0.447701       -12.1826
  49   2.0000      -0.437289       -11.8992
  50   2.0000      -0.424885       -11.5617
  51   2.0000      -0.416242       -11.3265
  52   2.0000      -0.410549       -11.1716
  53   2.0000      -0.406674       -11.0662
  54   2.0000      -0.404361       -11.0032
  55   2.0000      -0.398640       -10.8475
  56   2.0000      -0.379457       -10.3255
  57   2.0000      -0.369667       -10.0592
  58   2.0000      -0.361878        -9.8472
  59   2.0000      -0.354540        -9.6475
  60   2.0000      -0.352977        -9.6050
  61   2.0000      -0.343464        -9.3461
  62   2.0000      -0.337919        -9.1952
  63   2.0000      -0.335612        -9.1325
  64   2.0000      -0.317177        -8.6308
  65   2.0000      -0.314825        -8.5668
  66   2.0000      -0.299142        -8.1401
  67   2.0000      -0.296725        -8.0743
  68   2.0000      -0.296215        -8.0604
  69   2.0000      -0.288673        -7.8552
  70   2.0000      -0.281920        -7.6714
  71   2.0000      -0.253923        -6.9096
  72   2.0000      -0.243155        -6.6166
  73   2.0000      -0.233608        -6.3568
  74   2.0000      -0.229413        -6.2426
  75   2.0000      -0.209071        -5.6891
  76   0.0000      -0.068416        -1.8617
  77   0.0000      -0.067380        -1.8335
  78   0.0000      -0.057516        -1.5651
  79   0.0000      -0.048613        -1.3228
  80   0.0000      -0.044927        -1.2225

MULLIKEN ATOMIC CHARGES
-----------------------
   0 O :   -0.219189
   1 C :    0.013424
   2 O :   -0.343717
   3 C :   -0.741383
   4 C :    1.818808
   5 C :   -0.367112
   6 C :    0.044969
   7 C :   -0.385845
   8 C :   -0.508511
   9 C :   -1.260793
  10 N :    0.277071
  11 C :   -3.775885
  12 C :    2.256737
  13 Cl:    0.234543
  14 C :   -0.040105
  15 C :    0.077235
  16 C :   -0.495010
  17 C :    0.660074
  18 Cl:    0.335022
  19 H :    0.399798
  20 H :    0.222905
  21 H :    0.267012
  22 H :    0.169340
  23 H :    0.168744
  24 H :    0.170386
  25 H :    0.194904
  26 H :    0.256235
  27 H :    0.191287
  28 H :    0.185859
  29 H :    0.193195
Sum of atomic charges:   -0.0000000

LOEWDIN ATOMIC CHARGES
----------------------
   0 O :   -0.073474
   1 C :   -0.024353
   2 O :   -0.223928
   3 C :   -0.073208
   4 C :   -0.100872
   5 C :   -0.053807
   6 C :   -0.074573
   7 C :   -0.059784
   8 C :   -0.070077
   9 C :   -0.081397
  10 N :   -0.086801
  11 C :   -0.133866
  12 C :   -0.240061
  13 Cl:    0.288302
  14 C :   -0.078555
  15 C :   -0.048981
  16 C :   -0.078510
  17 C :   -0.236597
  18 Cl:    0.259019
  19 H :    0.125117
  20 H :    0.110128
  21 H :    0.120746
  22 H :    0.098120
  23 H :    0.088633
  24 H :    0.090049
  25 H :    0.110090
  26 H :    0.142876
  27 H :    0.104745
  28 H :    0.096486
  29 H :    0.104529

  Mayer bond orders larger than 0.100000
B(  0-O ,  1-C ) :   1.2426 B(  0-O ,  4-C ) :  -0.1252 B(  0-O , 10-N ) :   0.1172
B(  0-O , 12-C ) :  -0.2166 B(  0-O , 17-C ) :   0.1446 B(  0-O , 19-H ) :   0.7120
B(  1-C ,  2-O ) :   1.9206 B(  1-C ,  3-C ) :   1.0318 B(  1-C ,  4-C ) :  -0.1396
B(  1-C ,  5-C ) :  -0.2243 B(  1-C ,  9-C ) :   0.2616 B(  2-O ,  3-C ) :   0.1151
B(  2-O ,  4-C ) :  -0.1225 B(  3-C ,  4-C ) :  -0.2221 B(  3-C ,  5-C ) :  -0.5751
B(  3-C ,  9-C ) :   0.8666 B(  3-C , 10-N ) :  -0.1383 B(  3-C , 11-C ) :  -0.2251
B(  3-C , 14-C ) :  -0.1731 B(  3-C , 17-C ) :   0.3842 B(  3-C , 20-H ) :   1.0068
B(  3-C , 21-H ) :   1.0786 B(  4-C ,  5-C ) :   0.9944 B(  4-C ,  6-C ) :  -0.2280
B(  4-C ,  7-C ) :   0.3214 B(  4-C ,  8-C ) :   0.1003 B(  4-C ,  9-C ) :   1.4936
B(  4-C , 10-N ) :  -0.4684 B(  4-C , 11-C ) :  -0.1590 B(  4-C , 12-C ) :  -0.2731
B(  4-C , 14-C ) :   2.0970 B(  4-C , 15-C ) :   0.2803 B(  4-C , 16-C ) :   0.1728
B(  4-C , 17-C ) :  -1.9636 B(  4-C , 18-Cl) :  -0.1523 B(  4-C , 20-H ) :  -0.1044
B(  4-C , 21-H ) :  -0.1413 B(  4-C , 22-H ) :  -0.1575 B(  4-C , 26-H ) :  -0.2359
B(  5-C ,  6-C ) :   1.3489 B(  5-C ,  7-C ) :   0.2236 B(  5-C ,  8-C ) :  -0.3433
B(  5-C ,  9-C ) :   0.3784 B(  5-C , 12-C ) :   0.1783 B(  5-C , 14-C ) :   0.3829
B(  5-C , 17-C ) :  -0.5170 B(  5-C , 20-H ) :  -0.1028 B(  5-C , 22-H ) :   1.0014
B(  6-C ,  7-C ) :   1.3400 B(  6-C ,  8-C ) :  -0.1433 B(  6-C , 23-H ) :   0.9768
B(  7-C ,  8-C ) :   0.9098 B(  7-C , 11-C ) :   0.5778 B(  7-C , 12-C ) :  -0.1590
B(  7-C , 13-Cl) :  -0.1250 B(  7-C , 14-C ) :  -0.1133 B(  7-C , 15-C ) :  -0.2031
B(  7-C , 16-C ) :   0.3571 B(  7-C , 17-C ) :  -0.4116 B(  7-C , 24-H ) :   0.9935
B(  7-C , 25-H ) :  -0.1598 B(  8-C ,  9-C ) :   2.0913 B(  8-C , 10-N ) :  -0.3211
B(  8-C , 11-C ) :   0.9428 B(  8-C , 12-C ) :  -0.3668 B(  8-C , 13-Cl) :   0.6910
B(  8-C , 14-C ) :  -1.0599 B(  8-C , 15-C ) :  -0.1013 B(  8-C , 16-C ) :   0.1037
B(  8-C , 17-C ) :   1.1754 B(  8-C , 18-Cl) :   0.2131 B(  8-C , 25-H ) :   0.8988
B(  8-C , 26-H ) :   0.1402 B(  9-C , 10-N ) :   1.0426 B(  9-C , 11-C ) :  -0.8577
B(  9-C , 12-C ) :   0.1846 B(  9-C , 13-Cl) :  -0.5367 B(  9-C , 14-C ) :  -1.4551
B(  9-C , 16-C ) :  -0.4622 B(  9-C , 17-C ) :   1.7670 B(  9-C , 20-H ) :   0.1174
B(  9-C , 22-H ) :   0.1587 B(  9-C , 25-H ) :   0.1575 B(  9-C , 26-H ) :   0.1901
B( 10-N , 11-C ) :   0.8294 B( 10-N , 14-C ) :   0.2376 B( 10-N , 16-C ) :   0.1047
B( 10-N , 17-C ) :  -0.2231 B( 10-N , 18-Cl) :  -0.2619 B( 10-N , 26-H ) :   0.8091
B( 11-C , 12-C ) :  -2.3119 B( 11-C , 13-Cl) :   2.2330 B( 11-C , 14-C ) :  -1.9359
B( 11-C , 15-C ) :  -0.5619 B( 11-C , 16-C ) :   0.3253 B( 11-C , 17-C ) :   3.5975
B( 11-C , 18-Cl) :   2.8870 B( 11-C , 26-H ) :   0.1900 B( 11-C , 29-H ) :   0.2500
B( 12-C , 13-Cl) :  -1.6875 B( 12-C , 14-C ) :   2.3572 B( 12-C , 15-C ) :   0.1296
B( 12-C , 16-C ) :  -0.4681 B( 12-C , 17-C ) :   0.7938 B( 12-C , 18-Cl) :   0.4884
B( 12-C , 19-H ) :  -0.2043 B( 13-Cl, 14-C ) :   0.1887 B( 13-Cl, 16-C ) :   0.1950
B( 13-Cl, 17-C ) :   0.1806 B( 14-C , 15-C ) :   1.3464 B( 14-C , 16-C ) :   0.6028
B( 14-C , 17-C ) :  -0.1583 B( 14-C , 18-Cl) :   0.1817 B( 14-C , 27-H ) :   0.9491
B( 15-C , 16-C ) :   1.1123 B( 15-C , 17-C ) :   0.1984 B( 15-C , 28-H ) :   0.9627
B( 16-C , 17-C ) :   1.0610 B( 16-C , 18-Cl) :   0.2982 B( 16-C , 29-H ) :   0.9489
B( 17-C , 18-Cl) :  -2.6362 B( 17-C , 19-H ) :   0.2006 B( 17-C , 26-H ) :  -0.2093
B( 17-C , 29-H ) :  -0.1700 B( 18-Cl, 26-H ) :   0.1076

FINAL SINGLE POINT ENERGY     -1664.706936483406

DIPOLE MOMENT
-------------

Method             : SCF
Type of density    : Electron Density
Multiplicity       :   1
Irrep              :   0
Energy             : -1664.7069364834064800 Eh
Relativity type    :
Basis              : AO
                                X                 Y                 Z
Electronic contribution:     -3.581976937       8.939132522      -0.546099222
Nuclear contribution   :      4.962821080      -6.909574071       3.172143783
                        -----------------------------------------
Total Dipole Moment    :      1.380844143       2.029558451       2.626044561
                        -----------------------------------------
Magnitude (a.u.)       :      3.594711127
Magnitude (Debye)      :      9.137029553

Rotational constants in cm-1:             0.014043             0.007486             0.007371
Rotational constants in MHz :           421.005791           224.425738           220.988613

                             ****ORCA TERMINATED NORMALLY****
TOTAL RUN TIME: 0 days 0 hours 19 minutes 43 seconds 712 msec
