                         Program Version 6.0.0  -   RELEASE   -
|  1> # ORCA input file
|  2> #
|  3> !B3LYP 6-311+G** Opt CPCM(WATER)
|  4> * xyz 0 1
|  5>    C        2.84251         1.01411        -0.69096
|  6>    C        2.43769        -0.00906         0.37461
|  7>    C        0.91575        -0.01278         0.53493
|  8>    C        2.94670        -1.42385         0.03470
|  9>    C        4.45251        -1.51309        -0.08791
| 10>    C        5.27723        -1.21555         1.00286
| 11>    C        6.66758        -1.27499         0.88204
| 12>    C        7.26810        -1.65638        -0.32751
| 13>    C        6.43770        -1.95835        -1.41751
| 14>    C        5.04670        -1.88539        -1.29902
| 15>    C        8.78387        -1.78842        -0.41169
| 16>    C        9.16418        -3.23508        -0.74382
| 17>    C        9.51321        -0.83979        -1.36214
| 18>    O        8.78146         0.15695        -1.90506
| 19>    O       10.71031        -0.94017        -1.60515
| 20>    H        2.47037         2.01046        -0.43077
| 21>    H        2.43869         0.74424        -1.67252
| 22>    H        3.93059         1.08959        -0.77972
| 23>    H        2.86857         0.31218         1.33176
| 24>    H        0.41895        -0.36301        -0.37626
| 25>    H        0.54619         0.99434         0.75501
| 26>    H        0.61306        -0.66604         1.36024
| 27>    H        2.47811        -1.76575        -0.89972
| 28>    H        2.62532        -2.13383         0.80693
| 29>    H        4.84079        -0.93717         1.96023
| 30>    H        7.27498        -1.03913         1.75499
| 31>    H        6.86200        -2.26456        -2.37291
| 32>    H        4.42920        -2.12815        -2.16163
| 33>    H        9.19524        -1.55445         0.58086
| 34>    H        8.80273        -3.53129        -1.73562
| 35>    H        8.74197        -3.93027        -0.01021
| 36>    H       10.25123        -3.36973        -0.74622
| 37>    H        7.84710         0.18033        -1.63398
| 38> *
| 39>
| 40>                          ****END OF INPUT****
 Total Charge           Charge          ....    0
 Multiplicity           Mult            ....    1
 Number of Electrons    NEL             ....  112
FINAL SINGLE POINT ENERGY      -656.488875060697
FINAL SINGLE POINT ENERGY      -656.491470058863
FINAL SINGLE POINT ENERGY      -656.491957176218
FINAL SINGLE POINT ENERGY      -656.491986581578
FINAL SINGLE POINT ENERGY      -656.492306639970
FINAL SINGLE POINT ENERGY      -656.492419248417
FINAL SINGLE POINT ENERGY      -656.492420420751
FINAL SINGLE POINT ENERGY      -656.492666851295
FINAL SINGLE POINT ENERGY      -656.492770333633
FINAL SINGLE POINT ENERGY      -656.492991564059
FINAL SINGLE POINT ENERGY      -656.493228290191
FINAL SINGLE POINT ENERGY      -656.493267152999
FINAL SINGLE POINT ENERGY      -656.493288737802
FINAL SINGLE POINT ENERGY      -656.493312856774
FINAL SINGLE POINT ENERGY      -656.493319183013
FINAL SINGLE POINT ENERGY      -656.493323993298
FINAL SINGLE POINT ENERGY      -656.493326379145
FINAL SINGLE POINT ENERGY      -656.493327055808
FINAL SINGLE POINT ENERGY      -656.493327464119
                    ***********************HURRAY********************

CARTESIAN COORDINATES (ANGSTROEM)
---------------------------------
  C      2.708477    0.912958   -0.983358
  C      2.428438    0.051069    0.255013
  C      0.929882    0.041758    0.587517
  C      2.946627   -1.399272    0.086554
  C      4.447862   -1.521038   -0.059205
  C      5.291272   -1.339937    1.044308
  C      6.676919   -1.432994    0.916993
  C      7.266927   -1.715148   -0.320025
  C      6.428583   -1.905782   -1.424973
  C      5.043952   -1.808904   -1.293965
  C      8.783612   -1.844445   -0.447584
  C      9.234402   -3.274965   -0.772515
  C      9.329786   -0.839897   -1.463265
  O      9.115976    0.465942   -1.185519
  O      9.933835   -1.127165   -2.471083
  H      2.357138    1.937938   -0.829106
  H      2.189736    0.509498   -1.860887
  H      3.776218    0.956007   -1.215285
  H      2.960807    0.494141    1.106758
  H      0.353083   -0.407402   -0.229236
  H      0.556096    1.059101    0.739572
  H      0.727544   -0.532568    1.497073
  H      2.458520   -1.847482   -0.786551
  H      2.627466   -1.978353    0.960646
  H      4.861175   -1.127522    2.018584
  H      7.306031   -1.290210    1.790338
  H      6.854157   -2.132137   -2.397887
  H      4.415985   -1.961612   -2.166297
  H      9.218417   -1.551746    0.515639
  H      8.835333   -3.607389   -1.733176
  H      8.875396   -3.954001    0.003994
  H     10.324037   -3.339398   -0.812502
  H      8.616901    0.576875   -0.361741

 Multiplicity           Mult            ....    1
 Number of Electrons    NEL             ....  112
 Basis Dimension        Dim             ....  438

ORBITAL ENERGIES
----------------

  NO   OCC          E(Eh)            E(eV)
   0   2.0000     -19.175287      -521.7861
   1   2.0000     -19.123313      -520.3718
   2   2.0000     -10.315165      -280.6899
   3   2.0000     -10.200159      -277.5604
   4   2.0000     -10.188583      -277.2454
   5   2.0000     -10.181201      -277.0446
   6   2.0000     -10.175821      -276.8982
   7   2.0000     -10.175420      -276.8873
   8   2.0000     -10.172501      -276.8078
   9   2.0000     -10.172100      -276.7969
  10   2.0000     -10.169231      -276.7188
  11   2.0000     -10.163014      -276.5497
  12   2.0000     -10.161788      -276.5163
  13   2.0000     -10.149090      -276.1708
  14   2.0000     -10.147944      -276.1396
  15   2.0000      -1.115024       -30.3414
  16   2.0000      -1.033111       -28.1124
  17   2.0000      -0.868192       -23.6247
  18   2.0000      -0.818477       -22.2719
  19   2.0000      -0.792899       -21.5759
  20   2.0000      -0.748647       -20.3717
  21   2.0000      -0.742321       -20.1996
  22   2.0000      -0.679964       -18.5027
  23   2.0000      -0.676197       -18.4002
  24   2.0000      -0.657596       -17.8941
  25   2.0000      -0.620717       -16.8906
  26   2.0000      -0.611434       -16.6380
  27   2.0000      -0.586088       -15.9483
  28   2.0000      -0.555216       -15.1082
  29   2.0000      -0.527965       -14.3666
  30   2.0000      -0.502900       -13.6846
  31   2.0000      -0.476850       -12.9757
  32   2.0000      -0.472301       -12.8520
  33   2.0000      -0.458931       -12.4881
  34   2.0000      -0.447864       -12.1870
  35   2.0000      -0.445095       -12.1116
  36   2.0000      -0.432927       -11.7805
  37   2.0000      -0.426269       -11.5994
  38   2.0000      -0.423366       -11.5204
  39   2.0000      -0.419180       -11.4065
  40   2.0000      -0.404216       -10.9993
  41   2.0000      -0.386043       -10.5048
  42   2.0000      -0.377923       -10.2838
  43   2.0000      -0.373941       -10.1755
  44   2.0000      -0.364891        -9.9292
  45   2.0000      -0.363508        -9.8916
  46   2.0000      -0.359794        -9.7905
  47   2.0000      -0.344321        -9.3695
  48   2.0000      -0.339166        -9.2292
  49   2.0000      -0.335475        -9.1287
  50   2.0000      -0.327604        -8.9146
  51   2.0000      -0.321074        -8.7369
  52   2.0000      -0.317780        -8.6472
  53   2.0000      -0.294209        -8.0058
  54   2.0000      -0.258947        -7.0463
  55   2.0000      -0.243696        -6.6313
  56   0.0000      -0.023356        -0.6356
  57   0.0000      -0.021406        -0.5825
  58   0.0000      -0.004705        -0.1280
  59   0.0000       0.004441         0.1208
  60   0.0000       0.015870         0.4318

MULLIKEN ATOMIC CHARGES
-----------------------
   0 C :   -0.621921
   1 C :    0.397985
   2 C :   -0.694904
   3 C :   -1.032879
   4 C :    1.663314
   5 C :   -0.554689
   6 C :   -0.379436
   7 C :    0.683179
   8 C :   -0.412314
   9 C :   -0.706139
  10 C :    0.023068
  11 C :   -0.661456
  12 C :   -0.070804
  13 O :   -0.197950
  14 O :   -0.351598
  15 H :    0.144264
  16 H :    0.144274
  17 H :    0.147134
  18 H :    0.135872
  19 H :    0.144588
  20 H :    0.143744
  21 H :    0.142326
  22 H :    0.151466
  23 H :    0.154750
  24 H :    0.147090
  25 H :    0.152400
  26 H :    0.155235
  27 H :    0.146134
  28 H :    0.200141
  29 H :    0.176706
  30 H :    0.158144
  31 H :    0.158689
  32 H :    0.313590
Sum of atomic charges:   -0.0000000

LOEWDIN ATOMIC CHARGES
----------------------
   0 C :   -0.124400
   1 C :   -0.164268
   2 C :   -0.127662
   3 C :   -0.109289
   4 C :   -0.112012
   5 C :   -0.063004
   6 C :   -0.059336
   7 C :   -0.122595
   8 C :   -0.058267
   9 C :   -0.064990
  10 C :   -0.118154
  11 C :   -0.083394
  12 C :    0.002226
  13 O :   -0.058494
  14 O :   -0.220806
  15 H :    0.060649
  16 H :    0.069939
  17 H :    0.067627
  18 H :    0.075760
  19 H :    0.066226
  20 H :    0.060031
  21 H :    0.060346
  22 H :    0.087524
  23 H :    0.085260
  24 H :    0.090778
  25 H :    0.091273
  26 H :    0.096455
  27 H :    0.090168
  28 H :    0.110726
  29 H :    0.077268
  30 H :    0.073315
  31 H :    0.070015
  32 H :    0.151084

  Mayer bond orders larger than 0.100000
B(  0-C ,  1-C ) :   0.8304 B(  0-C ,  3-C ) :  -0.1057 B(  0-C , 15-H ) :   1.0040
B(  0-C , 16-H ) :   0.9918 B(  0-C , 17-H ) :   0.9890 B(  1-C ,  2-C ) :   0.6924
B(  1-C ,  3-C ) :   0.8659 B(  1-C ,  4-C ) :  -0.1343 B(  1-C ,  5-C ) :   0.1128
B(  1-C , 18-H ) :   0.9591 B(  2-C ,  3-C ) :   0.2750 B(  2-C ,  4-C ) :  -0.2495
B(  2-C , 19-H ) :   1.0146 B(  2-C , 20-H ) :   0.9984 B(  2-C , 21-H ) :   0.9899
B(  3-C ,  4-C ) :  -0.5830 B(  3-C ,  5-C ) :   0.2711 B(  3-C ,  6-C ) :   0.1039
B(  3-C ,  7-C ) :  -0.1822 B(  3-C ,  8-C ) :   0.1101 B(  3-C ,  9-C ) :   0.1560
B(  3-C , 22-H ) :   1.2122 B(  3-C , 23-H ) :   1.0615 B(  4-C ,  5-C ) :   1.3706
B(  4-C ,  7-C ) :   0.4867 B(  4-C ,  8-C ) :  -0.2282 B(  4-C ,  9-C ) :   1.2394
B(  4-C , 10-C ) :  -0.1305 B(  4-C , 18-H ) :  -0.1014 B(  4-C , 22-H ) :  -0.4274
B(  4-C , 23-H ) :  -0.1833 B(  5-C ,  6-C ) :   1.2957 B(  5-C ,  9-C ) :   0.3440
B(  5-C , 23-H ) :   0.1103 B(  5-C , 24-H ) :   0.9220 B(  6-C ,  7-C ) :   1.4419
B(  6-C ,  8-C ) :   0.1052 B(  6-C ,  9-C ) :  -0.1160 B(  6-C , 12-C ) :  -0.1505
B(  6-C , 13-O ) :  -0.2215 B(  6-C , 25-H ) :   0.9080 B(  6-C , 28-H ) :   0.1824
B(  7-C ,  8-C ) :   1.6558 B(  7-C , 10-C ) :   0.2428 B(  7-C , 11-C ) :  -0.2503
B(  7-C , 12-C ) :  -0.2170 B(  7-C , 13-O ) :   0.4440 B(  7-C , 14-O ) :   0.1185
B(  7-C , 28-H ) :  -0.2622 B(  7-C , 29-H ) :  -0.1136 B(  7-C , 32-H ) :   0.1036
B(  8-C ,  9-C ) :   1.3095 B(  8-C , 10-C ) :   0.1874 B(  8-C , 11-C ) :   0.2917
B(  8-C , 12-C ) :   0.3331 B(  8-C , 14-O ) :  -0.2669 B(  8-C , 26-H ) :   0.8600
B(  9-C , 10-C ) :   0.1350 B(  9-C , 22-H ) :   0.2509 B(  9-C , 27-H ) :   0.9047
B( 10-C , 11-C ) :   0.9380 B( 10-C , 12-C ) :   0.8556 B( 10-C , 13-O ) :  -0.2511
B( 10-C , 28-H ) :   1.0225 B( 11-C , 29-H ) :   0.9729 B( 11-C , 30-H ) :   0.9966
B( 11-C , 31-H ) :   0.9837 B( 12-C , 13-O ) :   1.3449 B( 12-C , 14-O ) :   2.0771
B( 13-O , 32-H ) :   0.8554

FINAL SINGLE POINT ENERGY      -656.493327557205

DIPOLE MOMENT
-------------

Method             : SCF
Type of density    : Electron Density
Multiplicity       :   1
Irrep              :   0
Energy             :  -656.4933275572052480 Eh
Relativity type    :
Basis              : AO
                                X                 Y                 Z
Electronic contribution:     18.987563858      -1.309990443      -3.252779349
Nuclear contribution   :    -20.456490989       1.125777528       5.343011230
                        -----------------------------------------
Total Dipole Moment    :     -1.468927131      -0.184212914       2.090231881
                        -----------------------------------------
Magnitude (a.u.)       :      2.561396227
Magnitude (Debye)      :      6.510551806

Rotational constants in cm-1:             0.046472             0.008503             0.008044
Rotational constants in MHz :          1393.186824           254.908522           241.148639

                             ****ORCA TERMINATED NORMALLY****
TOTAL RUN TIME: 0 days 1 hours 45 minutes 57 seconds 776 msec
