                         Program Version 6.0.0  -   RELEASE   -
|  1> # ORCA input file
|  2> #
|  3> !PBE STO-3G Opt CPCM(WATER)
|  4> * xyz 0 1
|  5>    O        3.20532         0.77222        -3.48165
|  6>    C        3.01992        -0.42363        -2.87260
|  7>    O        2.60439        -1.40765        -3.47515
|  8>    C        3.32048        -0.40706        -1.39156
|  9>    C        4.77373        -0.12881        -1.08244
| 10>    C        5.66943        -1.21342        -1.10651
| 11>    C        7.03233        -1.02123        -0.89021
| 12>    C        7.51453         0.25274        -0.62393
| 13>    C        6.63498         1.33431        -0.58478
| 14>    C        5.26576         1.17391        -0.86041
| 15>    N        4.37299         2.29124        -0.86707
| 16>    C        4.78516         3.66554        -0.98266
| 17>    C        5.63181         4.12934        -2.01264
| 18>   Cl        6.08405         3.13842        -3.35906
| 19>    C        6.11423         5.44479        -2.01214
| 20>    C        5.70652         6.34622        -1.03224
| 21>    C        4.79176         5.94154        -0.06385
| 22>    C        4.33591         4.61788        -0.04136
| 23>   Cl        3.21047         4.17011         1.19560
| 24>    H        3.58943         1.44889        -2.88309
| 25>    H        3.04405        -1.38942        -0.98093
| 26>    H        2.64728         0.30494        -0.90399
| 27>    H        5.30989        -2.22054        -1.31624
| 28>    H        7.71565        -1.86518        -0.93248
| 29>    H        8.57673         0.41196        -0.45771
| 30>    H        7.04962         2.31347        -0.36106
| 31>    H        3.79458         2.21395        -0.02113
| 32>    H        6.80603         5.77305        -2.78574
| 33>    H        6.08452         7.36622        -1.03898
| 34>    H        4.44479         6.65940         0.67650
| 35> *
| 36>
| 37>                          ****END OF INPUT****
 Total Charge           Charge          ....    0
 Multiplicity           Mult            ....    1
 Number of Electrons    NEL             ....  152
FINAL SINGLE POINT ENERGY     -1645.016821458021
FINAL SINGLE POINT ENERGY     -1645.047701204752
FINAL SINGLE POINT ENERGY     -1645.054850575922
FINAL SINGLE POINT ENERGY     -1645.059172703754
FINAL SINGLE POINT ENERGY     -1645.061877647575
FINAL SINGLE POINT ENERGY     -1645.065431129969
FINAL SINGLE POINT ENERGY     -1645.067819833170
FINAL SINGLE POINT ENERGY     -1645.068628825217
FINAL SINGLE POINT ENERGY     -1645.069370271150
FINAL SINGLE POINT ENERGY     -1645.069551781901
FINAL SINGLE POINT ENERGY     -1645.069712527231
FINAL SINGLE POINT ENERGY     -1645.069875266042
FINAL SINGLE POINT ENERGY     -1645.069927797115
FINAL SINGLE POINT ENERGY     -1645.069937925645
FINAL SINGLE POINT ENERGY     -1645.069941770849
                    ***********************HURRAY********************

CARTESIAN COORDINATES (ANGSTROEM)
---------------------------------
  O      3.044887    1.367729   -3.174027
  C      2.908491    0.000830   -2.921346
  O      2.430343   -0.794892   -3.782349
  C      3.353806   -0.488328   -1.446256
  C      4.828563   -0.237063   -1.109580
  C      5.751767   -1.311223   -1.001254
  C      7.111353   -1.081457   -0.691072
  C      7.576692    0.235057   -0.470372
  C      6.681737    1.325343   -0.565513
  C      5.326433    1.087049   -0.891293
  N      4.320173    2.198412   -1.053369
  C      4.834306    3.578100   -1.075003
  C      5.643612    4.093077   -2.135799
  Cl     6.153459    2.993499   -3.475929
  C      6.045650    5.450046   -2.174106
  C      5.619209    6.335289   -1.156409
  C      4.793033    5.876586   -0.102989
  C      4.417378    4.515129   -0.076944
  Cl     3.353847    3.893150    1.254283
  H      3.531446    1.775863   -2.296895
  H      3.146766   -1.575025   -1.385403
  H      2.699183    0.027949   -0.709534
  H      5.388585   -2.341875   -1.163318
  H      7.808836   -1.934272   -0.615454
  H      8.635870    0.419033   -0.218593
  H      7.031981    2.356730   -0.386487
  H      3.646485    2.165536   -0.221283
  H      6.678063    5.806367   -3.006522
  H      5.927058    7.395725   -1.188691
  H      4.447329    6.560835    0.691997

 Multiplicity           Mult            ....    1
 Number of Electrons    NEL             ....  152
 Basis Dimension        Dim             ....  114

ORBITAL ENERGIES
----------------

  NO   OCC          E(Eh)            E(eV)
   0   2.0000     -99.625321     -2710.9428
   1   2.0000     -99.614226     -2710.6409
   2   2.0000     -18.499147      -503.3874
   3   2.0000     -18.452305      -502.1127
   4   2.0000     -13.891464      -378.0060
   5   2.0000      -9.807463      -266.8746
   6   2.0000      -9.804141      -266.7842
   7   2.0000      -9.803706      -266.7724
   8   2.0000      -9.770621      -265.8721
   9   2.0000      -9.767108      -265.7765
  10   2.0000      -9.755275      -265.4545
  11   2.0000      -9.753808      -265.4146
  12   2.0000      -9.749072      -265.2857
  13   2.0000      -9.735484      -264.9160
  14   2.0000      -9.726663      -264.6760
  15   2.0000      -9.725501      -264.6443
  16   2.0000      -9.719889      -264.4916
  17   2.0000      -9.718417      -264.4516
  18   2.0000      -9.717476      -264.4260
  19   2.0000      -8.989180      -244.6080
  20   2.0000      -8.978610      -244.3204
  21   2.0000      -6.841742      -186.1733
  22   2.0000      -6.831598      -185.8972
  23   2.0000      -6.824378      -185.7008
  24   2.0000      -6.824120      -185.6937
  25   2.0000      -6.813912      -185.4160
  26   2.0000      -6.813023      -185.3918
  27   2.0000      -0.884860       -24.0783
  28   2.0000      -0.843603       -22.9556
  29   2.0000      -0.812651       -22.1134
  30   2.0000      -0.773238       -21.0409
  31   2.0000      -0.749020       -20.3819
  32   2.0000      -0.728457       -19.8223
  33   2.0000      -0.705264       -19.1912
  34   2.0000      -0.661535       -18.0013
  35   2.0000      -0.645541       -17.5661
  36   2.0000      -0.628675       -17.1071
  37   2.0000      -0.619942       -16.8695
  38   2.0000      -0.582712       -15.8564
  39   2.0000      -0.530453       -14.4344
  40   2.0000      -0.519284       -14.1304
  41   2.0000      -0.500139       -13.6095
  42   2.0000      -0.489829       -13.3289
  43   2.0000      -0.445199       -12.1145
  44   2.0000      -0.438230       -11.9248
  45   2.0000      -0.422121       -11.4865
  46   2.0000      -0.409611       -11.1461
  47   2.0000      -0.394448       -10.7335
  48   2.0000      -0.379188       -10.3182
  49   2.0000      -0.377062       -10.2604
  50   2.0000      -0.369616       -10.0578
  51   2.0000      -0.355803        -9.6819
  52   2.0000      -0.355413        -9.6713
  53   2.0000      -0.347990        -9.4693
  54   2.0000      -0.331303        -9.0152
  55   2.0000      -0.320303        -8.7159
  56   2.0000      -0.310565        -8.4509
  57   2.0000      -0.308700        -8.4001
  58   2.0000      -0.297597        -8.0980
  59   2.0000      -0.279484        -7.6051
  60   2.0000      -0.275155        -7.4874
  61   2.0000      -0.267333        -7.2745
  62   2.0000      -0.261535        -7.1167
  63   2.0000      -0.249502        -6.7893
  64   2.0000      -0.239069        -6.5054
  65   2.0000      -0.232529        -6.3274
  66   2.0000      -0.231543        -6.3006
  67   2.0000      -0.230442        -6.2707
  68   2.0000      -0.217581        -5.9207
  69   2.0000      -0.186508        -5.0751
  70   2.0000      -0.176231        -4.7955
  71   2.0000      -0.174292        -4.7427
  72   2.0000      -0.167710        -4.5636
  73   2.0000      -0.127579        -3.4716
  74   2.0000      -0.104139        -2.8338
  75   2.0000      -0.072727        -1.9790
  76   0.0000       0.015037         0.4092
  77   0.0000       0.017423         0.4741
  78   0.0000       0.037913         1.0317
  79   0.0000       0.045373         1.2347
  80   0.0000       0.048950         1.3320

MULLIKEN ATOMIC CHARGES
-----------------------
   0 O :   -0.238342
   1 C :    0.152911
   2 O :   -0.236211
   3 C :   -0.182239
   4 C :   -0.009100
   5 C :   -0.088817
   6 C :   -0.090453
   7 C :   -0.088774
   8 C :   -0.095078
   9 C :    0.056372
  10 N :   -0.274080
  11 C :    0.072680
  12 C :    0.024056
  13 Cl:   -0.103377
  14 C :   -0.073776
  15 C :   -0.072198
  16 C :   -0.074387
  17 C :    0.022562
  18 Cl:   -0.100932
  19 H :    0.214099
  20 H :    0.095139
  21 H :    0.096055
  22 H :    0.095574
  23 H :    0.096014
  24 H :    0.097336
  25 H :    0.101317
  26 H :    0.238928
  27 H :    0.122801
  28 H :    0.117603
  29 H :    0.124319
Sum of atomic charges:   -0.0000000

LOEWDIN ATOMIC CHARGES
----------------------
   0 O :   -0.170274
   1 C :    0.086868
   2 O :   -0.193116
   3 C :   -0.115671
   4 C :   -0.007702
   5 C :   -0.053901
   6 C :   -0.051499
   7 C :   -0.050351
   8 C :   -0.064526
   9 C :    0.039306
  10 N :   -0.126744
  11 C :    0.036454
  12 C :    0.010462
  13 Cl:   -0.071360
  14 C :   -0.043750
  15 C :   -0.031932
  16 C :   -0.044056
  17 C :    0.008398
  18 Cl:   -0.065244
  19 H :    0.160540
  20 H :    0.056448
  21 H :    0.058294
  22 H :    0.055928
  23 H :    0.056205
  24 H :    0.057239
  25 H :    0.061501
  26 H :    0.171352
  27 H :    0.078172
  28 H :    0.073438
  29 H :    0.079522

  Mayer bond orders larger than 0.100000
B(  0-O ,  1-C ) :   1.1816 B(  0-O ,  2-O ) :   0.2833 B(  0-O , 19-H ) :   0.7080
B(  1-C ,  2-O ) :   1.8324 B(  1-C ,  3-C ) :   0.8495 B(  3-C ,  4-C ) :   1.0059
B(  3-C , 20-H ) :   0.9621 B(  3-C , 21-H ) :   0.9484 B(  4-C ,  5-C ) :   1.3992
B(  4-C ,  7-C ) :   0.1069 B(  4-C ,  9-C ) :   1.3450 B(  5-C ,  6-C ) :   1.4296
B(  5-C ,  8-C ) :   0.1064 B(  5-C , 22-H ) :   0.9549 B(  6-C ,  7-C ) :   1.4246
B(  6-C ,  9-C ) :   0.1050 B(  6-C , 23-H ) :   0.9571 B(  7-C ,  8-C ) :   1.4194
B(  7-C , 24-H ) :   0.9567 B(  8-C ,  9-C ) :   1.4109 B(  8-C , 25-H ) :   0.9507
B(  9-C , 10-N ) :   0.9321 B( 10-N , 11-C ) :   1.0187 B( 10-N , 19-H ) :   0.2109
B( 10-N , 26-H ) :   0.8616 B( 11-C , 12-C ) :   1.3338 B( 11-C , 17-C ) :   1.3348
B( 12-C , 13-Cl) :   0.9682 B( 12-C , 14-C ) :   1.4062 B( 12-C , 16-C ) :   0.1004
B( 14-C , 15-C ) :   1.4191 B( 14-C , 27-H ) :   0.9499 B( 15-C , 16-C ) :   1.4146
B( 15-C , 28-H ) :   0.9510 B( 16-C , 17-C ) :   1.4103 B( 16-C , 29-H ) :   0.9494
B( 17-C , 18-Cl) :   0.9544

FINAL SINGLE POINT ENERGY     -1645.069942463382

DIPOLE MOMENT
-------------

Method             : SCF
Type of density    : Electron Density
Multiplicity       :   1
Irrep              :   0
Energy             : -1645.0699424633821764 Eh
Relativity type    :
Basis              : AO
                                X                 Y                 Z
Electronic contribution:     -4.035312823       8.810103733      -1.498669258
Nuclear contribution   :      5.237828397      -6.880437263       3.522069716
                        -----------------------------------------
Total Dipole Moment    :      1.202515574       1.929666471       2.023400458
                        -----------------------------------------
Magnitude (a.u.)       :      3.043650079
Magnitude (Debye)      :      7.736343684

Rotational constants in cm-1:             0.013498             0.007476             0.007318
Rotational constants in MHz :           404.672282           224.114547           219.389909

                             ****ORCA TERMINATED NORMALLY****
TOTAL RUN TIME: 0 days 0 hours 4 minutes 17 seconds 133 msec
