                         Program Version 6.0.0  -   RELEASE   -
|  1> # ORCA input file
|  2> #
|  3> !PBE STO-3G Opt CPCM(WATER)
|  4> * xyz 0 1
|  5>    C       -0.49838         1.45672         0.09896
|  6>    C        0.83636         1.86187         0.13987
|  7>    C        1.85850         0.90964         0.07692
|  8>    C        1.52705        -0.44553         0.10327
|  9>    C        0.19399        -0.85911         0.06588
| 10>    C       -0.81311         0.09845         0.04328
| 11>   Cl       -2.45804        -0.38995        -0.04430
| 12>    O        2.48623        -1.41804         0.15924
| 13>    O        3.19540         1.23915         0.00408
| 14>    C        3.55840         2.36555        -0.71342
| 15>    C        4.59924         3.16189        -0.21840
| 16>    C        4.97545         4.33057        -0.88996
| 17>    C        4.31222         4.69779        -2.05616
| 18>    C        3.30213         3.89395        -2.58058
| 19>    C        2.94419         2.71337        -1.92599
| 20>   Cl        4.74503         6.15332        -2.86475
| 21>   Cl        5.43890         2.74189         1.23085
| 22>    H       -1.28677         2.20447         0.09898
| 23>    H        1.06264         2.92223         0.19335
| 24>    H       -0.04081        -1.92109         0.05235
| 25>    H        3.32941        -0.97731         0.37369
| 26>    H        5.77651         4.95189        -0.49678
| 27>    H        2.78688         4.18033        -3.49530
| 28>    H        2.16802         2.08687        -2.36091
| 29> **                         ****END OF INPUT****
 Total Charge           Charge          ....    0
 Multiplicity           Mult            ....    1
 Number of Electrons    NEL             ....  146
FINAL SINGLE POINT ENERGY     -1968.458766819714
FINAL SINGLE POINT ENERGY     -1968.489556662496
FINAL SINGLE POINT ENERGY     -1968.496133009805
FINAL SINGLE POINT ENERGY     -1968.498737771152
FINAL SINGLE POINT ENERGY     -1968.499550026275
FINAL SINGLE POINT ENERGY     -1968.500426292791
FINAL SINGLE POINT ENERGY     -1968.501125113726
FINAL SINGLE POINT ENERGY     -1968.501270506411
FINAL SINGLE POINT ENERGY     -1968.501316418836
FINAL SINGLE POINT ENERGY     -1968.501328557660
FINAL SINGLE POINT ENERGY     -1968.501331226365
FINAL SINGLE POINT ENERGY     -1968.501332347681
FINAL SINGLE POINT ENERGY     -1968.501332865822
                    ***********************HURRAY********************

CARTESIAN COORDINATES (ANGSTROEM)
---------------------------------
  C     -0.816336    1.253233    0.106504
  C      0.444300    1.899269    0.186687
  C      1.606516    1.105167    0.156806
  C      1.556973   -0.334941    0.088198
  C      0.291677   -0.984478    0.008989
  C     -0.860443   -0.162176    0.017983
  Cl    -2.485403   -0.968387   -0.082599
  O      2.784526   -1.003875    0.107215
  O      2.988165    1.523329    0.349607
  C      3.450774    2.542421   -0.549402
  C      4.722164    3.119242   -0.219804
  C      5.315023    4.113658   -1.028400
  C      4.613901    4.533011   -2.188276
  C      3.360001    3.976725   -2.545613
  C      2.782822    2.981199   -1.728170
  Cl     5.349597    5.811797   -3.234741
  Cl     5.575262    2.541082    1.263573
  H     -1.748450    1.841933    0.116735
  H      0.506668    2.999554    0.261928
  H      0.217687   -2.082791   -0.055149
  H      3.398818   -0.142756    0.183090
  H      6.293648    4.549028   -0.759394
  H      2.839666    4.314697   -3.459283
  H      1.811886    2.532982   -2.002316

 Multiplicity           Mult            ....    1
 Number of Electrons    NEL             ....  146
 Basis Dimension        Dim             ....  104

ORBITAL ENERGIES
----------------

  NO   OCC          E(Eh)            E(eV)
   0   2.0000     -99.612570     -2710.5958
   1   2.0000     -99.605216     -2710.3957
   2   2.0000     -99.591705     -2710.0281
   3   2.0000     -18.638966      -507.1920
   4   2.0000     -18.572288      -505.3776
   5   2.0000      -9.811618      -266.9877
   6   2.0000      -9.800295      -266.6796
   7   2.0000      -9.795048      -266.5368
   8   2.0000      -9.785350      -266.2729
   9   2.0000      -9.781951      -266.1804
  10   2.0000      -9.777695      -266.0646
  11   2.0000      -9.760854      -265.6063
  12   2.0000      -9.753032      -265.3935
  13   2.0000      -9.750249      -265.3178
  14   2.0000      -9.740392      -265.0495
  15   2.0000      -9.732356      -264.8309
  16   2.0000      -9.729868      -264.7632
  17   2.0000      -8.977086      -244.2789
  18   2.0000      -8.970412      -244.0973
  19   2.0000      -8.958152      -243.7637
  20   2.0000      -6.830102      -185.8565
  21   2.0000      -6.823299      -185.6714
  22   2.0000      -6.812282      -185.3716
  23   2.0000      -6.811526      -185.3511
  24   2.0000      -6.810790      -185.3310
  25   2.0000      -6.805663      -185.1915
  26   2.0000      -6.804861      -185.1697
  27   2.0000      -6.793462      -184.8595
  28   2.0000      -6.792664      -184.8378
  29   2.0000      -0.957655       -26.0591
  30   2.0000      -0.906561       -24.6688
  31   2.0000      -0.780370       -21.2349
  32   2.0000      -0.755493       -20.5580
  33   2.0000      -0.739644       -20.1267
  34   2.0000      -0.703908       -19.1543
  35   2.0000      -0.699179       -19.0256
  36   2.0000      -0.645833       -17.5740
  37   2.0000      -0.640960       -17.4414
  38   2.0000      -0.632401       -17.2085
  39   2.0000      -0.600283       -16.3345
  40   2.0000      -0.539170       -14.6716
  41   2.0000      -0.526687       -14.3319
  42   2.0000      -0.503062       -13.6890
  43   2.0000      -0.491550       -13.3758
  44   2.0000      -0.455734       -12.4012
  45   2.0000      -0.426781       -11.6133
  46   2.0000      -0.406087       -11.0502
  47   2.0000      -0.402234       -10.9453
  48   2.0000      -0.383075       -10.4240
  49   2.0000      -0.377554       -10.2738
  50   2.0000      -0.366494        -9.9728
  51   2.0000      -0.356947        -9.7130
  52   2.0000      -0.355798        -9.6818
  53   2.0000      -0.332162        -9.0386
  54   2.0000      -0.324014        -8.8169
  55   2.0000      -0.313054        -8.5186
  56   2.0000      -0.311226        -8.4689
  57   2.0000      -0.302576        -8.2335
  58   2.0000      -0.295471        -8.0402
  59   2.0000      -0.270475        -7.3600
  60   2.0000      -0.263963        -7.1828
  61   2.0000      -0.249928        -6.8009
  62   2.0000      -0.241435        -6.5698
  63   2.0000      -0.228310        -6.2126
  64   2.0000      -0.218276        -5.9396
  65   2.0000      -0.215947        -5.8762
  66   2.0000      -0.211302        -5.7498
  67   2.0000      -0.205121        -5.5816
  68   2.0000      -0.204596        -5.5674
  69   2.0000      -0.183102        -4.9825
  70   2.0000      -0.167632        -4.5615
  71   2.0000      -0.143844        -3.9142
  72   2.0000      -0.113157        -3.0792
  73   0.0000       0.020017         0.5447
  74   0.0000       0.020487         0.5575
  75   0.0000       0.037378         1.0171
  76   0.0000       0.046875         1.2755
  77   0.0000       0.050887         1.3847

MULLIKEN ATOMIC CHARGES
-----------------------
   0 C :   -0.094689
   1 C :   -0.093085
   2 C :    0.047711
   3 C :    0.068491
   4 C :   -0.105159
   5 C :    0.020954
   6 Cl:   -0.138258
   7 O :   -0.187026
   8 O :   -0.123703
   9 C :    0.087907
  10 C :    0.018354
  11 C :   -0.075201
  12 C :    0.022919
  13 C :   -0.074162
  14 C :   -0.087601
  15 Cl:   -0.117399
  16 Cl:   -0.106232
  17 H :    0.109691
  18 H :    0.114506
  19 H :    0.114118
  20 H :    0.223789
  21 H :    0.130800
  22 H :    0.122072
  23 H :    0.121203
Sum of atomic charges:   -0.0000000

LOEWDIN ATOMIC CHARGES
----------------------
   0 C :   -0.071988
   1 C :   -0.059836
   2 C :    0.019543
   3 C :    0.046372
   4 C :   -0.089649
   5 C :    0.019427
   6 Cl:   -0.105897
   7 O :   -0.102598
   8 O :   -0.041484
   9 C :    0.061484
  10 C :    0.001285
  11 C :   -0.054137
  12 C :    0.015708
  13 C :   -0.043338
  14 C :   -0.059505
  15 Cl:   -0.085391
  16 Cl:   -0.074030
  17 H :    0.068143
  18 H :    0.072256
  19 H :    0.072467
  20 H :    0.170147
  21 H :    0.085446
  22 H :    0.077623
  23 H :    0.077952

  Mayer bond orders larger than 0.100000
B(  0-C ,  1-C ) :   1.3953 B(  0-C ,  5-C ) :   1.3901 B(  0-C , 17-H ) :   0.9530
B(  1-C ,  2-C ) :   1.4147 B(  1-C , 18-H ) :   0.9499 B(  2-C ,  3-C ) :   1.2483
B(  2-C ,  8-O ) :   0.9631 B(  3-C ,  4-C ) :   1.3245 B(  3-C ,  7-O ) :   1.1871
B(  4-C ,  5-C ) :   1.4086 B(  4-C , 19-H ) :   0.9511 B(  5-C ,  6-Cl) :   0.9516
B(  7-O , 20-H ) :   0.8286 B(  8-O ,  9-C ) :   1.0240 B(  9-C , 10-C ) :   1.3083
B(  9-C , 14-C ) :   1.3535 B( 10-C , 11-C ) :   1.4180 B( 10-C , 16-Cl) :   0.9659
B( 11-C , 12-C ) :   1.3820 B( 11-C , 14-C ) :   0.1006 B( 11-C , 21-H ) :   0.9468
B( 12-C , 13-C ) :   1.3893 B( 12-C , 15-Cl) :   0.9629 B( 13-C , 14-C ) :   1.4337
B( 13-C , 22-H ) :   0.9500 B( 14-C , 23-H ) :   0.9429

FINAL SINGLE POINT ENERGY     -1968.501332973171

DIPOLE MOMENT
-------------

Method             : SCF
Type of density    : Electron Density
Multiplicity       :   1
Irrep              :   0
Energy             : -1968.5013329731707472 Eh
Relativity type    :
Basis              : AO
                                X                 Y                 Z
Electronic contribution:      5.385191401       2.374982108       0.819905375
Nuclear contribution   :     -5.162511855      -1.843919981      -1.144817846
                        -----------------------------------------
Total Dipole Moment    :      0.222679546       0.531062127      -0.324912471
                        -----------------------------------------
Magnitude (a.u.)       :      0.661196852
Magnitude (Debye)      :      1.680628836

Rotational constants in cm-1:             0.021407             0.004785             0.004131
Rotational constants in MHz :           641.756848           143.444432           123.850291

                             ****ORCA TERMINATED NORMALLY****
TOTAL RUN TIME: 0 days 0 hours 2 minutes 28 seconds 710 msec
