                         Program Version 6.0.0  -   RELEASE   -
|  1> # ORCA input file
|  2> #
|  3> !B3LYP def2-TZVP Opt CPCM(WATER)
|  4> * xyz 0 1
|  5>    H        1.09662        -0.20425         0.32676
|  6>    C        2.13797        -0.11108        -0.01052
|  7>    C        2.12649         0.62804        -1.35353
|  8>    C        2.82666         0.75101         1.05036
|  9>    O        3.42837         0.07530         2.05584
| 10>    O        2.79236         1.97380         1.05318
| 11>    C        2.71761        -1.51246        -0.17817
| 12>    C        1.93400        -2.64563         0.11349
| 13>    C        2.46764        -3.93628        -0.02637
| 14>    C        3.77114        -4.09904        -0.50532
| 15>    C        4.55448        -2.98406        -0.79480
| 16>    C        4.03583        -1.70072        -0.62371
| 17>    C        1.68733        -5.16375         0.28429
| 18>    O        1.87299        -6.17087        -0.39524
| 19>    C        0.70964        -5.21669         1.40278
| 20>    C        0.85415        -4.43205         2.55380
| 21>    C       -0.08941        -4.51477         3.57938
| 22>    C       -1.16344        -5.39791         3.47203
| 23>    C       -1.29213        -6.20776         2.34434
| 24>    C       -0.35568        -6.12155         1.31302
| 25>    H        1.60784         1.58944        -1.26613
| 26>    H        1.61662         0.04215        -2.12585
| 27>    H        3.14163         0.84360        -1.70681
| 28>    H        3.41398        -0.89696         1.96534
| 29>    H        0.90004        -2.51911         0.43007
| 30>    H        4.17798        -5.09810        -0.65507
| 31>    H        5.56968        -3.11822        -1.16231
| 32>    H        4.67199        -0.84709        -0.85704
| 33>    H        1.70284        -3.76706         2.68065
| 34>    H        0.01844        -3.89919         4.46945
| 35>    H       -1.89326        -5.46596         4.27487
| 36>    H       -2.11824        -6.91083         2.26952
| 37>    H       -0.45599        -6.76552         0.44094
| 38> *
| 39>
| 40>                          ****END OF INPUT****
 Total Charge           Charge          ....    0
 Multiplicity           Mult            ....    1
 Number of Electrons    NEL             ....  134
FINAL SINGLE POINT ENERGY      -843.674304959578
FINAL SINGLE POINT ENERGY      -843.677443684363
FINAL SINGLE POINT ENERGY      -843.677535570034
FINAL SINGLE POINT ENERGY      -843.678042562869
FINAL SINGLE POINT ENERGY      -843.678197335096
FINAL SINGLE POINT ENERGY      -843.678344781643
FINAL SINGLE POINT ENERGY      -843.678521622093
FINAL SINGLE POINT ENERGY      -843.678748600467
FINAL SINGLE POINT ENERGY      -843.678864786773
FINAL SINGLE POINT ENERGY      -843.678966258083
FINAL SINGLE POINT ENERGY      -843.678995244507
FINAL SINGLE POINT ENERGY      -843.678997759790
FINAL SINGLE POINT ENERGY      -843.678999087217
FINAL SINGLE POINT ENERGY      -843.678999842400
FINAL SINGLE POINT ENERGY      -843.678938263050
FINAL SINGLE POINT ENERGY      -843.679001066237
FINAL SINGLE POINT ENERGY      -843.679001097142
FINAL SINGLE POINT ENERGY      -843.679002049057
FINAL SINGLE POINT ENERGY      -843.679002191221
                    ***********************HURRAY********************

CARTESIAN COORDINATES (ANGSTROEM)
---------------------------------
  H      1.217150   -0.269909    0.539760
  C      2.173404   -0.152229    0.021953
  C      1.922142    0.531831   -1.324944
  C      3.050411    0.707614    0.929986
  O      3.065452    0.371751    2.235160
  O      3.721092    1.640414    0.560844
  C      2.781381   -1.542335   -0.135480
  C      2.035439   -2.674451    0.186880
  C      2.556065   -3.958615   -0.000158
  C      3.849161   -4.104994   -0.510529
  C      4.608836   -2.982861   -0.808717
  C      4.077717   -1.709529   -0.627987
  C      1.743749   -5.186907    0.260484
  O      1.907649   -6.182435   -0.433918
  C      0.736191   -5.202223    1.362882
  C      0.921124   -4.485107    2.549786
  C     -0.005880   -4.585747    3.581436
  C     -1.135679   -5.383463    3.429132
  C     -1.330617   -6.096771    2.247288
  C     -0.394407   -6.017099    1.226595
  H      1.457131    1.507694   -1.179579
  H      1.254093   -0.084213   -1.927894
  H      2.852569    0.673444   -1.874890
  H      2.478861   -0.377649    2.421330
  H      1.027398   -2.551189    0.561667
  H      4.252452   -5.097954   -0.659510
  H      5.617336   -3.096295   -1.186265
  H      4.678879   -0.842266   -0.874892
  H      1.800162   -3.868147    2.680396
  H      0.154377   -4.040064    4.502885
  H     -1.862699   -5.451479    4.229103
  H     -2.210827   -6.715781    2.125726
  H     -0.533941   -6.576605    0.310711

 Multiplicity           Mult            ....    1
 Number of Electrons    NEL             ....  134
 Basis Dimension        Dim             ....  673

ORBITAL ENERGIES
----------------

  NO   OCC          E(Eh)            E(eV)
   0   2.0000     -19.177548      -521.8476
   1   2.0000     -19.122714      -520.3555
   2   2.0000     -19.121723      -520.3285
   3   2.0000     -10.312284      -280.6115
   4   2.0000     -10.271150      -279.4922
   5   2.0000     -10.201204      -277.5889
   6   2.0000     -10.197801      -277.4963
   7   2.0000     -10.192884      -277.3625
   8   2.0000     -10.191063      -277.3129
   9   2.0000     -10.187674      -277.2207
  10   2.0000     -10.185689      -277.1667
  11   2.0000     -10.185423      -277.1595
  12   2.0000     -10.184545      -277.1356
  13   2.0000     -10.183562      -277.1088
  14   2.0000     -10.183155      -277.0977
  15   2.0000     -10.182117      -277.0695
  16   2.0000     -10.179981      -277.0114
  17   2.0000     -10.179826      -277.0072
  18   2.0000     -10.163206      -276.5549
  19   2.0000      -1.112154       -30.2632
  20   2.0000      -1.049811       -28.5668
  21   2.0000      -1.029740       -28.0207
  22   2.0000      -0.877806       -23.8863
  23   2.0000      -0.867231       -23.5986
  24   2.0000      -0.813287       -22.1307
  25   2.0000      -0.780820       -21.2472
  26   2.0000      -0.758039       -20.6273
  27   2.0000      -0.753936       -20.5156
  28   2.0000      -0.740740       -20.1565
  29   2.0000      -0.666073       -18.1248
  30   2.0000      -0.660730       -17.9794
  31   2.0000      -0.624091       -16.9824
  32   2.0000      -0.622284       -16.9332
  33   2.0000      -0.613962       -16.7068
  34   2.0000      -0.599403       -16.3106
  35   2.0000      -0.564095       -15.3498
  36   2.0000      -0.538502       -14.6534
  37   2.0000      -0.513391       -13.9701
  38   2.0000      -0.506786       -13.7904
  39   2.0000      -0.484760       -13.1910
  40   2.0000      -0.476394       -12.9633
  41   2.0000      -0.470540       -12.8040
  42   2.0000      -0.467978       -12.7343
  43   2.0000      -0.459120       -12.4933
  44   2.0000      -0.447681       -12.1820
  45   2.0000      -0.438930       -11.9439
  46   2.0000      -0.437091       -11.8939
  47   2.0000      -0.429675       -11.6920
  48   2.0000      -0.424743       -11.5578
  49   2.0000      -0.424445       -11.5497
  50   2.0000      -0.406618       -11.0646
  51   2.0000      -0.399058       -10.8589
  52   2.0000      -0.380488       -10.3536
  53   2.0000      -0.373395       -10.1606
  54   2.0000      -0.370934       -10.0936
  55   2.0000      -0.364948        -9.9307
  56   2.0000      -0.362756        -9.8711
  57   2.0000      -0.358424        -9.7532
  58   2.0000      -0.349451        -9.5090
  59   2.0000      -0.344103        -9.3635
  60   2.0000      -0.334389        -9.0992
  61   2.0000      -0.295670        -8.0456
  62   2.0000      -0.275529        -7.4975
  63   2.0000      -0.270336        -7.3562
  64   2.0000      -0.266078        -7.2403
  65   2.0000      -0.263668        -7.1748
  66   2.0000      -0.257636        -7.0106
  67   0.0000      -0.077015        -2.0957
  68   0.0000      -0.031490        -0.8569
  69   0.0000      -0.027795        -0.7563
  70   0.0000      -0.017317        -0.4712
  71   0.0000       0.001790         0.0487

MULLIKEN ATOMIC CHARGES
-----------------------
   0 H :    0.137669
   1 C :   -0.054804
   2 C :   -0.388711
   3 C :    0.307353
   4 O :   -0.376687
   5 O :   -0.367605
   6 C :    0.126872
   7 C :   -0.332673
   8 C :    0.185358
   9 C :   -0.201944
  10 C :   -0.134613
  11 C :   -0.182372
  12 C :    0.225172
  13 O :   -0.379713
  14 C :    0.136619
  15 C :   -0.226802
  16 C :   -0.131666
  17 C :   -0.126122
  18 C :   -0.132118
  19 C :   -0.200541
  20 H :    0.131388
  21 H :    0.131992
  22 H :    0.128375
  23 H :    0.372217
  24 H :    0.164643
  25 H :    0.141658
  26 H :    0.147246
  27 H :    0.149304
  28 H :    0.166378
  29 H :    0.147488
  30 H :    0.149552
  31 H :    0.146784
  32 H :    0.140302
Sum of atomic charges:   -0.0000000

LOEWDIN ATOMIC CHARGES
----------------------
   0 H :    0.178682
   1 C :   -0.205741
   2 C :   -0.257621
   3 C :   -0.466854
   4 O :    0.105985
   5 O :    0.070503
   6 C :   -0.117778
   7 C :   -0.058555
   8 C :   -0.114293
   9 C :   -0.085837
  10 C :   -0.126692
  11 C :   -0.083180
  12 C :   -0.233923
  13 O :    0.083125
  14 C :   -0.120206
  15 C :   -0.091403
  16 C :   -0.134480
  17 C :   -0.122282
  18 C :   -0.133542
  19 C :   -0.088148
  20 H :    0.127471
  21 H :    0.129050
  22 H :    0.126740
  23 H :    0.215644
  24 H :    0.164094
  25 H :    0.155754
  26 H :    0.153824
  27 H :    0.158780
  28 H :    0.158999
  29 H :    0.152363
  30 H :    0.152323
  31 H :    0.152111
  32 H :    0.155087

  Mayer bond orders larger than 0.100000
B(  0-H ,  1-C ) :   0.9513 B(  1-C ,  2-C ) :   0.9435 B(  1-C ,  3-C ) :   0.9670
B(  1-C ,  6-C ) :   0.8934 B(  2-C , 20-H ) :   0.9719 B(  2-C , 21-H ) :   0.9698
B(  2-C , 22-H ) :   0.9686 B(  3-C ,  4-O ) :   1.2211 B(  3-C ,  5-O ) :   2.0625
B(  4-O , 23-H ) :   0.8410 B(  6-C ,  7-C ) :   1.3593 B(  6-C , 11-C ) :   1.3341
B(  7-C ,  8-C ) :   1.3472 B(  7-C , 24-H ) :   0.9604 B(  8-C ,  9-C ) :   1.3137
B(  8-C , 12-C ) :   0.9548 B(  9-C , 10-C ) :   1.4041 B(  9-C , 25-H ) :   0.9726
B( 10-C , 11-C ) :   1.3857 B( 10-C , 26-H ) :   0.9809 B( 11-C , 27-H ) :   0.9622
B( 12-C , 13-O ) :   2.0061 B( 12-C , 14-C ) :   0.9756 B( 14-C , 15-C ) :   1.3242
B( 14-C , 19-C ) :   1.3165 B( 15-C , 16-C ) :   1.4021 B( 15-C , 28-H ) :   0.9654
B( 16-C , 17-C ) :   1.3854 B( 16-C , 29-H ) :   0.9748 B( 17-C , 18-C ) :   1.3695
B( 17-C , 30-H ) :   0.9690 B( 18-C , 19-C ) :   1.4274 B( 18-C , 31-H ) :   0.9763
B( 19-C , 32-H ) :   0.9724

FINAL SINGLE POINT ENERGY      -843.679002416384

DIPOLE MOMENT
-------------

Method             : SCF
Type of density    : Electron Density
Multiplicity       :   1
Irrep              :   0
Energy             :  -843.6790024163844919 Eh
Relativity type    :
Basis              : AO
                                X                 Y                 Z
Electronic contribution:      2.909220105      -3.965921980       2.112074196
Nuclear contribution   :     -4.601860553       3.696733627      -1.069799408
                        -----------------------------------------
Total Dipole Moment    :     -1.692640448      -0.269188354       1.042274788
                        -----------------------------------------
Magnitude (a.u.)       :      2.005948850
Magnitude (Debye)      :      5.098716775

Rotational constants in cm-1:             0.021027             0.007123             0.005940
Rotational constants in MHz :           630.369690           213.536077           178.063938

                             ****ORCA TERMINATED NORMALLY****
TOTAL RUN TIME: 0 days 2 hours 9 minutes 55 seconds 814 msec
