                         Program Version 6.0.0  -   RELEASE   -
|  1> # ORCA input file
|  2> #
|  3> !TPSS 6-311+G** Opt CPCM(WATER)
|  4> * xyz 0 1
|  5>    H        2.19682        -0.91154         0.64044
|  6>    C        2.08274        -0.07230        -0.06151
|  7>    C        0.61781         0.37039        -0.01313
|  8>    C        2.95733         1.04661         0.51400
|  9>    O        4.28094         0.77780         0.52831
| 10>    O        2.52215         2.08691         0.98966
| 11>    C        2.46394        -0.56230        -1.45986
| 12>    C        2.32706        -1.92842        -1.78584
| 13>    C        2.67594        -2.40638        -3.06924
| 14>    C        3.08558        -1.51093        -4.05073
| 15>    C        3.20379        -0.15525        -3.74761
| 16>    C        2.90509         0.31130        -2.46255
| 17>    C        2.63455        -3.85377        -3.42227
| 18>    O        2.31712        -4.18658        -4.56116
| 19>    C        3.03282        -4.89946        -2.43983
| 20>    C        3.93140        -4.62386        -1.40002
| 21>    C        4.30356        -5.63104        -0.51010
| 22>    C        3.79973        -6.92143        -0.66808
| 23>    C        2.92349        -7.20672        -1.71455
| 24>    C        2.54088        -6.19946        -2.60247
| 25>    H        0.34865         0.71015         0.99629
| 26>    H       -0.06373        -0.44391        -0.27769
| 27>    H        0.43042         1.20885        -0.69604
| 28>    H        4.52517        -0.07595         0.12336
| 29>    H        1.94296        -2.62253        -1.04434
| 30>    H        3.32225        -1.86705        -5.05606
| 31>    H        3.53216         0.53830        -4.52112
| 32>    H        3.01182         1.37929        -2.26715
| 33>    H        4.36991        -3.63997        -1.27773
| 34>    H        4.99900        -5.41307         0.29648
| 35>    H        4.10396        -7.70787         0.01569
| 36>    H        2.54331        -8.21744        -1.84315
| 37>    H        1.86720        -6.43272        -3.42364
| 38> *
| 39>
| 40>                          ****END OF INPUT****
 Total Charge           Charge          ....    0
 Multiplicity           Mult            ....    1
 Number of Electrons    NEL             ....  134
FINAL SINGLE POINT ENERGY      -844.207086733813
FINAL SINGLE POINT ENERGY      -844.210656042358
FINAL SINGLE POINT ENERGY      -844.211092707830
FINAL SINGLE POINT ENERGY      -844.211799291667
FINAL SINGLE POINT ENERGY      -844.211934666570
FINAL SINGLE POINT ENERGY      -844.212067551162
FINAL SINGLE POINT ENERGY      -844.212028831309
FINAL SINGLE POINT ENERGY      -844.212205838667
FINAL SINGLE POINT ENERGY      -844.212223633164
FINAL SINGLE POINT ENERGY      -844.212235670352
FINAL SINGLE POINT ENERGY      -844.212238827341
FINAL SINGLE POINT ENERGY      -844.212242779817
FINAL SINGLE POINT ENERGY      -844.212249946649
FINAL SINGLE POINT ENERGY      -844.212257930971
FINAL SINGLE POINT ENERGY      -844.212268531063
FINAL SINGLE POINT ENERGY      -844.212282626092
FINAL SINGLE POINT ENERGY      -844.212287829548
FINAL SINGLE POINT ENERGY      -844.212289140413
                    ***********************HURRAY********************

CARTESIAN COORDINATES (ANGSTROEM)
---------------------------------
  H      1.918625   -1.000651    0.548515
  C      1.967549   -0.109110   -0.092452
  C      0.592519    0.582880   -0.093471
  C      3.043778    0.795072    0.521933
  O      4.265490    0.226215    0.720218
  O      2.883375    1.958957    0.841440
  C      2.388697   -0.572866   -1.488879
  C      2.456636   -1.941501   -1.784694
  C      2.782825   -2.385020   -3.080498
  C      3.050362   -1.439006   -4.087029
  C      3.012342   -0.075524   -3.791685
  C      2.678503    0.357095   -2.502579
  C      2.774255   -3.838030   -3.443451
  O      2.464905   -4.183331   -4.593373
  C      3.132526   -4.870291   -2.422456
  C      4.075835   -4.622363   -1.405923
  C      4.434915   -5.640518   -0.516853
  C      3.839883   -6.903931   -0.618821
  C      2.896048   -7.156944   -1.625602
  C      2.555101   -6.151359   -2.530523
  H      0.305888    0.865480    0.924751
  H     -0.159514   -0.105033   -0.493407
  H      0.608813    1.484766   -0.714192
  H      4.266057   -0.704058    0.422975
  H      2.220181   -2.664694   -1.007490
  H      3.296544   -1.783634   -5.087890
  H      3.239141    0.654888   -4.564443
  H      2.641639    1.423673   -2.288224
  H      4.550048   -3.647355   -1.329339
  H      5.177561   -5.447430    0.253441
  H      4.111867   -7.690590    0.081162
  H      2.431657   -8.137116   -1.702830
  H      1.831770   -6.339022   -3.319971

 Multiplicity           Mult            ....    1
 Number of Electrons    NEL             ....  134
 Basis Dimension        Dim             ....  502

ORBITAL ENERGIES
----------------

  NO   OCC          E(Eh)            E(eV)
   0   2.0000     -18.935110      -515.2505
   1   2.0000     -18.883554      -513.8476
   2   2.0000     -18.879795      -513.7454
   3   2.0000     -10.125105      -275.5181
   4   2.0000     -10.084112      -274.4026
   5   2.0000     -10.022330      -272.7215
   6   2.0000     -10.016567      -272.5647
   7   2.0000     -10.011994      -272.4402
   8   2.0000     -10.009859      -272.3821
   9   2.0000     -10.007986      -272.3311
  10   2.0000     -10.005679      -272.2684
  11   2.0000     -10.005182      -272.2548
  12   2.0000     -10.004338      -272.2319
  13   2.0000     -10.002819      -272.1905
  14   2.0000     -10.002421      -272.1797
  15   2.0000     -10.002084      -272.1706
  16   2.0000      -9.999513      -272.1006
  17   2.0000      -9.999343      -272.0960
  18   2.0000      -9.984329      -271.6874
  19   2.0000      -1.040668       -28.3180
  20   2.0000      -0.977287       -26.5933
  21   2.0000      -0.962785       -26.1987
  22   2.0000      -0.817628       -22.2488
  23   2.0000      -0.807008       -21.9598
  24   2.0000      -0.756616       -20.5886
  25   2.0000      -0.726033       -19.7564
  26   2.0000      -0.703979       -19.1562
  27   2.0000      -0.700176       -19.0528
  28   2.0000      -0.687704       -18.7134
  29   2.0000      -0.616838       -16.7850
  30   2.0000      -0.611717       -16.6457
  31   2.0000      -0.576016       -15.6742
  32   2.0000      -0.572101       -15.5677
  33   2.0000      -0.566825       -15.4241
  34   2.0000      -0.551391       -15.0041
  35   2.0000      -0.517713       -14.0877
  36   2.0000      -0.492647       -13.4056
  37   2.0000      -0.470835       -12.8121
  38   2.0000      -0.464055       -12.6276
  39   2.0000      -0.441438       -12.0122
  40   2.0000      -0.434558       -11.8249
  41   2.0000      -0.422963       -11.5094
  42   2.0000      -0.422187       -11.4883
  43   2.0000      -0.415116       -11.2959
  44   2.0000      -0.405860       -11.0440
  45   2.0000      -0.397943       -10.8286
  46   2.0000      -0.391310       -10.6481
  47   2.0000      -0.389976       -10.6118
  48   2.0000      -0.383260       -10.4290
  49   2.0000      -0.381603       -10.3840
  50   2.0000      -0.366802        -9.9812
  51   2.0000      -0.360584        -9.8120
  52   2.0000      -0.343874        -9.3573
  53   2.0000      -0.337397        -9.1810
  54   2.0000      -0.333399        -9.0722
  55   2.0000      -0.326426        -8.8825
  56   2.0000      -0.324268        -8.8238
  57   2.0000      -0.321954        -8.7608
  58   2.0000      -0.312703        -8.5091
  59   2.0000      -0.308622        -8.3980
  60   2.0000      -0.293655        -7.9908
  61   2.0000      -0.257119        -6.9966
  62   2.0000      -0.247091        -6.7237
  63   2.0000      -0.244792        -6.6611
  64   2.0000      -0.241977        -6.5845
  65   2.0000      -0.236055        -6.4234
  66   2.0000      -0.224343        -6.1047
  67   0.0000      -0.106191        -2.8896
  68   0.0000      -0.059530        -1.6199
  69   0.0000      -0.055968        -1.5230
  70   0.0000      -0.046880        -1.2757
  71   0.0000      -0.036604        -0.9960

MULLIKEN ATOMIC CHARGES
-----------------------
   0 H :    0.220410
   1 C :   -0.083565
   2 C :   -0.807921
   3 C :   -0.113797
   4 O :   -0.168252
   5 O :   -0.301905
   6 C :    1.572430
   7 C :   -2.717742
   8 C :    1.759765
   9 C :    0.173311
  10 C :   -0.385737
  11 C :   -0.150391
  12 C :   -1.262238
  13 O :   -0.250173
  14 C :    1.806949
  15 C :   -1.075699
  16 C :   -0.321303
  17 C :   -0.161329
  18 C :   -0.180863
  19 C :   -0.020670
  20 H :    0.185210
  21 H :    0.179722
  22 H :    0.210836
  23 H :    0.322236
  24 H :    0.193179
  25 H :    0.167832
  26 H :    0.170980
  27 H :    0.178863
  28 H :    0.192481
  29 H :    0.166921
  30 H :    0.169430
  31 H :    0.168366
  32 H :    0.162666
Sum of atomic charges:   -0.0000000

LOEWDIN ATOMIC CHARGES
----------------------
   0 H :    0.111059
   1 C :   -0.112954
   2 C :   -0.076209
   3 C :   -0.006740
   4 O :   -0.053351
   5 O :   -0.208537
   6 C :   -0.106549
   7 C :   -0.029442
   8 C :   -0.101257
   9 C :   -0.015763
  10 C :   -0.041341
  11 C :   -0.029518
  12 C :    0.020294
  13 O :   -0.223983
  14 C :   -0.112149
  15 C :   -0.037780
  16 C :   -0.057472
  17 C :   -0.042414
  18 C :   -0.057103
  19 C :   -0.023479
  20 H :    0.070610
  21 H :    0.073429
  22 H :    0.077459
  23 H :    0.154639
  24 H :    0.107308
  25 H :    0.095794
  26 H :    0.084810
  27 H :    0.099656
  28 H :    0.097897
  29 H :    0.083149
  30 H :    0.082561
  31 H :    0.082636
  32 H :    0.094738

  Mayer bond orders larger than 0.100000
B(  0-H ,  1-C ) :   1.1276 B(  0-H ,  6-C ) :  -0.5072 B(  0-H ,  7-C ) :   0.3144
B(  1-C ,  2-C ) :   0.9635 B(  1-C ,  3-C ) :   0.8514 B(  1-C ,  4-O ) :  -0.3155
B(  1-C ,  6-C ) :  -0.1601 B(  1-C ,  7-C ) :   0.4212 B(  1-C , 22-H ) :   0.1034
B(  2-C ,  3-C ) :  -0.1307 B(  2-C ,  6-C ) :  -0.7522 B(  2-C ,  7-C ) :   0.4395
B(  2-C , 11-C ) :   0.2679 B(  2-C , 20-H ) :   0.9698 B(  2-C , 21-H ) :   1.0097
B(  2-C , 22-H ) :   0.9573 B(  3-C ,  4-O ) :   1.4119 B(  3-C ,  5-O ) :   2.1174
B(  3-C ,  6-C ) :  -0.3375 B(  3-C , 11-C ) :   0.3087 B(  4-O ,  6-C ) :   0.6883
B(  4-O ,  7-C ) :  -0.2656 B(  4-O , 11-C ) :  -0.1935 B(  4-O , 23-H ) :   0.8529
B(  5-O ,  7-C ) :   0.1412 B(  5-O , 11-C ) :  -0.2578 B(  6-C ,  8-C ) :   0.6704
B(  6-C ,  9-C ) :  -0.2182 B(  6-C , 10-C ) :   0.4848 B(  6-C , 11-C ) :   1.1108
B(  6-C , 12-C ) :  -0.2517 B(  6-C , 14-C ) :   0.7532 B(  6-C , 16-C ) :   0.4801
B(  6-C , 17-C ) :  -0.1489 B(  6-C , 18-C ) :   0.2607 B(  6-C , 19-C ) :  -1.4081
B(  6-C , 21-H ) :  -0.1151 B(  6-C , 22-H ) :  -0.1456 B(  6-C , 23-H ) :   0.1502
B(  7-C ,  8-C ) :   0.1069 B(  7-C ,  9-C ) :   0.7169 B(  7-C , 10-C ) :  -0.3528
B(  7-C , 11-C ) :   0.9392 B(  7-C , 12-C ) :   2.1177 B(  7-C , 14-C ) :  -0.7059
B(  7-C , 15-C ) :   2.0900 B(  7-C , 17-C ) :   0.2377 B(  7-C , 18-C ) :  -0.4678
B(  7-C , 19-C ) :  -0.2529 B(  7-C , 23-H ) :  -0.1045 B(  7-C , 24-H ) :   0.8255
B(  7-C , 27-H ) :   0.1177 B(  8-C ,  9-C ) :   1.4179 B(  8-C , 12-C ) :  -0.5986
B(  8-C , 14-C ) :   0.7052 B(  8-C , 15-C ) :  -0.7433 B(  8-C , 16-C ) :   0.3591
B(  8-C , 17-C ) :  -0.2142 B(  8-C , 18-C ) :   0.2645 B(  8-C , 19-C ) :  -0.8109
B(  9-C , 10-C ) :   1.0301 B(  9-C , 11-C ) :  -0.5544 B(  9-C , 12-C ) :  -0.6498
B(  9-C , 14-C ) :  -1.0901 B(  9-C , 15-C ) :  -0.7564 B(  9-C , 16-C ) :  -0.8356
B(  9-C , 17-C ) :   0.1818 B(  9-C , 18-C ) :  -0.1341 B(  9-C , 19-C ) :   2.2174
B(  9-C , 25-H ) :   0.9920 B( 10-C , 11-C ) :   1.0814 B( 10-C , 14-C ) :   0.3664
B( 10-C , 15-C ) :  -0.2010 B( 10-C , 16-C ) :   0.2209 B( 10-C , 17-C ) :  -0.1057
B( 10-C , 19-C ) :  -0.4087 B( 10-C , 26-H ) :   1.0594 B( 11-C , 14-C ) :  -0.2205
B( 11-C , 15-C ) :   0.1520 B( 11-C , 19-C ) :   0.1708 B( 11-C , 27-H ) :   0.9005
B( 12-C , 13-O ) :   1.8337 B( 12-C , 14-C ) :  -0.3871 B( 12-C , 15-C ) :   1.5242
B( 12-C , 16-C ) :   0.1829 B( 12-C , 18-C ) :  -0.1664 B( 12-C , 32-H ) :   0.1962
B( 14-C , 15-C ) :   0.8177 B( 14-C , 16-C ) :  -0.1034 B( 14-C , 19-C ) :   1.3973
B( 14-C , 32-H ) :  -0.1887 B( 15-C , 16-C ) :   1.2714 B( 15-C , 28-H ) :   1.0065
B( 15-C , 29-H ) :  -0.1009 B( 16-C , 17-C ) :   1.3284 B( 16-C , 18-C ) :   0.1062
B( 16-C , 29-H ) :   1.0239 B( 17-C , 18-C ) :   1.3994 B( 17-C , 19-C ) :   0.1839
B( 17-C , 30-H ) :   0.9768 B( 18-C , 19-C ) :   1.1952 B( 18-C , 31-H ) :   1.0327
B( 19-C , 31-H ) :  -0.1316 B( 19-C , 32-H ) :   1.0129

FINAL SINGLE POINT ENERGY      -844.212289315499

DIPOLE MOMENT
-------------

Method             : SCF
Type of density    : Electron Density
Multiplicity       :   1
Irrep              :   0
Energy             :  -844.2122893154987651 Eh
Relativity type    :
Basis              : AO
                                X                 Y                 Z
Electronic contribution:      3.986488859      -1.267087410      -3.338381545
Nuclear contribution   :     -3.982319906      -0.317018370       4.306121357
                        -----------------------------------------
Total Dipole Moment    :      0.004168953      -1.584105781       0.967739812
                        -----------------------------------------
Magnitude (a.u.)       :      1.856321321
Magnitude (Debye)      :      4.718393822

Rotational constants in cm-1:             0.020807             0.007072             0.005894
Rotational constants in MHz :           623.775013           212.011014           176.683566

                             ****ORCA TERMINATED NORMALLY****
TOTAL RUN TIME: 0 days 0 hours 37 minutes 44 seconds 639 msec
