                         Program Version 6.0.0  -   RELEASE   -
|  1> # ORCA input file
|  2> #
|  3> !PBE def2-TZVP Opt CPCM(WATER)
|  4> * xyz 0 1
|  5>    O        3.20532         0.77222        -3.48165
|  6>    C        3.01992        -0.42363        -2.87260
|  7>    O        2.60439        -1.40765        -3.47515
|  8>    C        3.32048        -0.40706        -1.39156
|  9>    C        4.77373        -0.12881        -1.08244
| 10>    C        5.66943        -1.21342        -1.10651
| 11>    C        7.03233        -1.02123        -0.89021
| 12>    C        7.51453         0.25274        -0.62393
| 13>    C        6.63498         1.33431        -0.58478
| 14>    C        5.26576         1.17391        -0.86041
| 15>    N        4.37299         2.29124        -0.86707
| 16>    C        4.78516         3.66554        -0.98266
| 17>    C        5.63181         4.12934        -2.01264
| 18>   Cl        6.08405         3.13842        -3.35906
| 19>    C        6.11423         5.44479        -2.01214
| 20>    C        5.70652         6.34622        -1.03224
| 21>    C        4.79176         5.94154        -0.06385
| 22>    C        4.33591         4.61788        -0.04136
| 23>   Cl        3.21047         4.17011         1.19560
| 24>    H        3.58943         1.44889        -2.88309
| 25>    H        3.04405        -1.38942        -0.98093
| 26>    H        2.64728         0.30494        -0.90399
| 27>    H        5.30989        -2.22054        -1.31624
| 28>    H        7.71565        -1.86518        -0.93248
| 29>    H        8.57673         0.41196        -0.45771
| 30>    H        7.04962         2.31347        -0.36106
| 31>    H        3.79458         2.21395        -0.02113
| 32>    H        6.80603         5.77305        -2.78574
| 33>    H        6.08452         7.36622        -1.03898
| 34>    H        4.44479         6.65940         0.67650
| 35> *
| 36>
| 37>                          ****END OF INPUT****
 Total Charge           Charge          ....    0
 Multiplicity           Mult            ....    1
 Number of Electrons    NEL             ....  152
FINAL SINGLE POINT ENERGY     -1664.779800386264
FINAL SINGLE POINT ENERGY     -1664.785905012518
FINAL SINGLE POINT ENERGY     -1664.788235550845
FINAL SINGLE POINT ENERGY     -1664.789483876087
FINAL SINGLE POINT ENERGY     -1664.790573220205
FINAL SINGLE POINT ENERGY     -1664.790839527249
FINAL SINGLE POINT ENERGY     -1664.791042499217
FINAL SINGLE POINT ENERGY     -1664.791150425797
FINAL SINGLE POINT ENERGY     -1664.791242012454
FINAL SINGLE POINT ENERGY     -1664.791276914391
FINAL SINGLE POINT ENERGY     -1664.791290358365
FINAL SINGLE POINT ENERGY     -1664.791295645347
                    ***********************HURRAY********************

CARTESIAN COORDINATES (ANGSTROEM)
---------------------------------
  O      3.168078    1.112931   -3.318001
  C      2.952832   -0.137973   -2.874489
  O      2.441394   -0.968233   -3.608001
  C      3.358808   -0.435741   -1.430312
  C      4.814256   -0.160055   -1.106129
  C      5.701665   -1.234996   -0.969049
  C      7.053010   -1.035599   -0.676921
  C      7.533278    0.263533   -0.504133
  C      6.665653    1.351097   -0.622300
  C      5.316728    1.147785   -0.928372
  N      4.396762    2.244067   -1.085934
  C      4.846302    3.585099   -1.072808
  C      5.623206    4.128362   -2.117395
  Cl     6.074121    3.124316   -3.466242
  C      6.024407    5.463548   -2.119869
  C      5.628177    6.306382   -1.081698
  C      4.836157    5.816758   -0.044006
  C      4.465055    4.473529   -0.044875
  Cl     3.483914    3.873126    1.268528
  H      3.594061    1.667907   -2.591924
  H      3.139516   -1.494718   -1.252365
  H      2.685149    0.145916   -0.776872
  H      5.316163   -2.249177   -1.096720
  H      7.723101   -1.891323   -0.581391
  H      8.584117    0.438187   -0.266801
  H      7.038373    2.365008   -0.469150
  H      3.597011    2.138417   -0.451441
  H      6.629473    5.837265   -2.945593
  H      5.932280    7.353542   -1.086055
  H      4.513293    6.464244    0.770809

 Multiplicity           Mult            ....    1
 Number of Electrons    NEL             ....  152
 Basis Dimension        Dim             ....  667

ORBITAL ENERGIES
----------------

  NO   OCC          E(Eh)            E(eV)
   0   2.0000    -100.680705     -2739.6613
   1   2.0000    -100.676630     -2739.5504
   2   2.0000     -18.788264      -511.2546
   3   2.0000     -18.740472      -509.9542
   4   2.0000     -14.035787      -381.9332
   5   2.0000     -10.012580      -272.4562
   6   2.0000      -9.963930      -271.1323
   7   2.0000      -9.963244      -271.1137
   8   2.0000      -9.957932      -270.9691
   9   2.0000      -9.940724      -270.5009
  10   2.0000      -9.911917      -269.7170
  11   2.0000      -9.907473      -269.5960
  12   2.0000      -9.907270      -269.5905
  13   2.0000      -9.906906      -269.5806
  14   2.0000      -9.904607      -269.5181
  15   2.0000      -9.894353      -269.2390
  16   2.0000      -9.893850      -269.2253
  17   2.0000      -9.893013      -269.2026
  18   2.0000      -9.889259      -269.1004
  19   2.0000      -9.194242      -250.1880
  20   2.0000      -9.190229      -250.0788
  21   2.0000      -7.017564      -190.9576
  22   2.0000      -7.013649      -190.8511
  23   2.0000      -7.007593      -190.6863
  24   2.0000      -7.007212      -190.6759
  25   2.0000      -7.003692      -190.5802
  26   2.0000      -7.002958      -190.5602
  27   2.0000      -1.007613       -27.4185
  28   2.0000      -0.929491       -25.2927
  29   2.0000      -0.896004       -24.3815
  30   2.0000      -0.827813       -22.5259
  31   2.0000      -0.812666       -22.1138
  32   2.0000      -0.783835       -21.3292
  33   2.0000      -0.762079       -20.7372
  34   2.0000      -0.722063       -19.6483
  35   2.0000      -0.695780       -18.9331
  36   2.0000      -0.672150       -18.2901
  37   2.0000      -0.666898       -18.1472
  38   2.0000      -0.645514       -17.5653
  39   2.0000      -0.580024       -15.7833
  40   2.0000      -0.566722       -15.4213
  41   2.0000      -0.558003       -15.1840
  42   2.0000      -0.544643       -14.8205
  43   2.0000      -0.536434       -14.5971
  44   2.0000      -0.494641       -13.4599
  45   2.0000      -0.491254       -13.3677
  46   2.0000      -0.468282       -12.7426
  47   2.0000      -0.454619       -12.3708
  48   2.0000      -0.445048       -12.1104
  49   2.0000      -0.434650       -11.8274
  50   2.0000      -0.421851       -11.4792
  51   2.0000      -0.412742       -11.2313
  52   2.0000      -0.407594       -11.0912
  53   2.0000      -0.403198       -10.9716
  54   2.0000      -0.401073       -10.9137
  55   2.0000      -0.396362       -10.7856
  56   2.0000      -0.377655       -10.2765
  57   2.0000      -0.367010        -9.9869
  58   2.0000      -0.358892        -9.7659
  59   2.0000      -0.351988        -9.5781
  60   2.0000      -0.350947        -9.5498
  61   2.0000      -0.340861        -9.2753
  62   2.0000      -0.336240        -9.1496
  63   2.0000      -0.333253        -9.0683
  64   2.0000      -0.314445        -8.5565
  65   2.0000      -0.311836        -8.4855
  66   2.0000      -0.297399        -8.0926
  67   2.0000      -0.294597        -8.0164
  68   2.0000      -0.293031        -7.9738
  69   2.0000      -0.285700        -7.7743
  70   2.0000      -0.279128        -7.5955
  71   2.0000      -0.251197        -6.8354
  72   2.0000      -0.240920        -6.5558
  73   2.0000      -0.230754        -6.2791
  74   2.0000      -0.226641        -6.1672
  75   2.0000      -0.205769        -5.5992
  76   0.0000      -0.066003        -1.7960
  77   0.0000      -0.064884        -1.7656
  78   0.0000      -0.053863        -1.4657
  79   0.0000      -0.045026        -1.2252
  80   0.0000      -0.036629        -0.9967

MULLIKEN ATOMIC CHARGES
-----------------------
   0 O :   -0.313636
   1 C :    0.202818
   2 O :   -0.349077
   3 C :   -0.236403
   4 C :   -0.026906
   5 C :   -0.179338
   6 C :   -0.159823
   7 C :   -0.133463
   8 C :   -0.235847
   9 C :    0.244375
  10 N :   -0.326031
  11 C :    0.203668
  12 C :    0.027568
  13 Cl:   -0.093418
  14 C :   -0.177146
  15 C :   -0.139720
  16 C :   -0.176416
  17 C :    0.066535
  18 Cl:   -0.102481
  19 H :    0.331737
  20 H :    0.138776
  21 H :    0.160191
  22 H :    0.134619
  23 H :    0.137125
  24 H :    0.139304
  25 H :    0.149042
  26 H :    0.262950
  27 H :    0.150003
  28 H :    0.149678
  29 H :    0.151313
Sum of atomic charges:    0.0000000

LOEWDIN ATOMIC CHARGES
----------------------
   0 O :    0.106424
   1 C :   -0.520825
   2 O :    0.057084
   3 C :   -0.188434
   4 C :   -0.125314
   5 C :   -0.110162
   6 C :   -0.150424
   7 C :   -0.143277
   8 C :   -0.125772
   9 C :   -0.185833
  10 N :    0.144141
  11 C :   -0.227355
  12 C :   -0.403555
  13 Cl:    0.433404
  14 C :   -0.141445
  15 C :   -0.130033
  16 C :   -0.141338
  17 C :   -0.397064
  18 Cl:    0.412540
  19 H :    0.180610
  20 H :    0.167197
  21 H :    0.172462
  22 H :    0.159766
  23 H :    0.153726
  24 H :    0.155133
  25 H :    0.163190
  26 H :    0.200027
  27 H :    0.161440
  28 H :    0.161892
  29 H :    0.161792

  Mayer bond orders larger than 0.100000
B(  0-O ,  1-C ) :   1.2852 B(  0-O , 19-H ) :   0.7686 B(  1-C ,  2-O ) :   2.0935
B(  1-C ,  3-C ) :   0.9934 B(  3-C ,  4-C ) :   0.9680 B(  3-C , 20-H ) :   0.9344
B(  3-C , 21-H ) :   0.9106 B(  4-C ,  5-C ) :   1.3855 B(  4-C ,  9-C ) :   1.2759
B(  5-C ,  6-C ) :   1.3832 B(  5-C , 22-H ) :   0.9737 B(  6-C ,  7-C ) :   1.3793
B(  6-C , 23-H ) :   0.9766 B(  7-C ,  8-C ) :   1.3892 B(  7-C , 24-H ) :   0.9722
B(  8-C ,  9-C ) :   1.3897 B(  8-C , 25-H ) :   0.9596 B(  9-C , 10-N ) :   0.8793
B( 10-N , 11-C ) :   0.9553 B( 10-N , 19-H ) :   0.1657 B( 10-N , 26-H ) :   0.8770
B( 11-C , 12-C ) :   1.2599 B( 11-C , 17-C ) :   1.2644 B( 12-C , 13-Cl) :   1.0203
B( 12-C , 14-C ) :   1.3448 B( 13-Cl, 14-C ) :   0.1024 B( 14-C , 15-C ) :   1.3832
B( 14-C , 27-H ) :   0.9650 B( 15-C , 16-C ) :   1.3790 B( 15-C , 28-H ) :   0.9674
B( 16-C , 17-C ) :   1.3423 B( 16-C , 29-H ) :   0.9666 B( 17-C , 18-Cl) :   1.0243

FINAL SINGLE POINT ENERGY     -1664.791296897215

DIPOLE MOMENT
-------------

Method             : SCF
Type of density    : Electron Density
Multiplicity       :   1
Irrep              :   0
Energy             : -1664.7912968972150338 Eh
Relativity type    :
Basis              : AO
                                X                 Y                 Z
Electronic contribution:     -3.610702482       8.938715587      -0.687644046
Nuclear contribution   :      4.892261737      -6.915810066       3.171716886
                        -----------------------------------------
Total Dipole Moment    :      1.281559255       2.022905521       2.484072840
                        -----------------------------------------
Magnitude (a.u.)       :      3.450385304
Magnitude (Debye)      :      8.770182464

Rotational constants in cm-1:             0.014122             0.007504             0.007374
Rotational constants in MHz :           423.369087           224.950048           221.062818

                             ****ORCA TERMINATED NORMALLY****
TOTAL RUN TIME: 0 days 0 hours 20 minutes 31 seconds 687 msec
