                         Program Version 6.0.0  -   RELEASE   -
|  1> # ORCA input file
|  2> #
|  3> !B3LYP STO-3G Opt CPCM(WATER)
|  4> * xyz 0 1
|  5>    H        1.09662        -0.20425         0.32676
|  6>    C        2.13797        -0.11108        -0.01052
|  7>    C        2.12649         0.62804        -1.35353
|  8>    C        2.82666         0.75101         1.05036
|  9>    O        3.42837         0.07530         2.05584
| 10>    O        2.79236         1.97380         1.05318
| 11>    C        2.71761        -1.51246        -0.17817
| 12>    C        1.93400        -2.64563         0.11349
| 13>    C        2.46764        -3.93628        -0.02637
| 14>    C        3.77114        -4.09904        -0.50532
| 15>    C        4.55448        -2.98406        -0.79480
| 16>    C        4.03583        -1.70072        -0.62371
| 17>    C        1.68733        -5.16375         0.28429
| 18>    O        1.87299        -6.17087        -0.39524
| 19>    C        0.70964        -5.21669         1.40278
| 20>    C        0.85415        -4.43205         2.55380
| 21>    C       -0.08941        -4.51477         3.57938
| 22>    C       -1.16344        -5.39791         3.47203
| 23>    C       -1.29213        -6.20776         2.34434
| 24>    C       -0.35568        -6.12155         1.31302
| 25>    H        1.60784         1.58944        -1.26613
| 26>    H        1.61662         0.04215        -2.12585
| 27>    H        3.14163         0.84360        -1.70681
| 28>    H        3.41398        -0.89696         1.96534
| 29>    H        0.90004        -2.51911         0.43007
| 30>    H        4.17798        -5.09810        -0.65507
| 31>    H        5.56968        -3.11822        -1.16231
| 32>    H        4.67199        -0.84709        -0.85704
| 33>    H        1.70284        -3.76706         2.68065
| 34>    H        0.01844        -3.89919         4.46945
| 35>    H       -1.89326        -5.46596         4.27487
| 36>    H       -2.11824        -6.91083         2.26952
| 37>    H       -0.45599        -6.76552         0.44094
| 38> *
| 39>
| 40>                          ****END OF INPUT****
 Total Charge           Charge          ....    0
 Multiplicity           Mult            ....    1
 Number of Electrons    NEL             ....  134
FINAL SINGLE POINT ENERGY      -832.596527170154
FINAL SINGLE POINT ENERGY      -832.619754006756
FINAL SINGLE POINT ENERGY      -832.622118025403
FINAL SINGLE POINT ENERGY      -832.622534312713
FINAL SINGLE POINT ENERGY      -832.622665132273
FINAL SINGLE POINT ENERGY      -832.622731896231
FINAL SINGLE POINT ENERGY      -832.622766572488
FINAL SINGLE POINT ENERGY      -832.622793379034
FINAL SINGLE POINT ENERGY      -832.622800570476
FINAL SINGLE POINT ENERGY      -832.622807124782
FINAL SINGLE POINT ENERGY      -832.622811749327
FINAL SINGLE POINT ENERGY      -832.622816385176
FINAL SINGLE POINT ENERGY      -832.622819453351
                    ***********************HURRAY********************

CARTESIAN COORDINATES (ANGSTROEM)
---------------------------------
  H      1.104326   -0.250177    0.416280
  C      2.120493   -0.120171   -0.006668
  C      2.001465    0.648882   -1.360789
  C      2.933446    0.771117    1.041785
  O      3.400951    0.086346    2.195848
  O      3.148022    1.997433    0.924601
  C      2.750730   -1.525348   -0.172020
  C      2.006884   -2.684423    0.151407
  C      2.563128   -3.977162   -0.011621
  C      3.878788   -4.103941   -0.521239
  C      4.633312   -2.956835   -0.832656
  C      4.075096   -1.675901   -0.658249
  C      1.756848   -5.264658    0.268348
  O      1.956725   -6.310640   -0.411073
  C      0.706059   -5.243616    1.397603
  C      0.838197   -4.426764    2.548084
  C     -0.120539   -4.490838    3.578186
  C     -1.220826   -5.366397    3.469871
  C     -1.355454   -6.191201    2.332663
  C     -0.393197   -6.135366    1.307972
  H      1.600282    1.657874   -1.177905
  H      1.324503    0.113174   -2.043966
  H      2.986724    0.745580   -1.841510
  H      3.131630   -0.889508    2.031629
  H      0.976423   -2.577625    0.517949
  H      4.301427   -5.108853   -0.664636
  H      5.658517   -3.059968   -1.214964
  H      4.668951   -0.783921   -0.903355
  H      1.700385   -3.752877    2.644014
  H     -0.007957   -3.857462    4.469160
  H     -1.969703   -5.410364    4.273193
  H     -2.208821   -6.878564    2.249032
  H     -0.480645   -6.781396    0.422265

 Multiplicity           Mult            ....    1
 Number of Electrons    NEL             ....  134
 Basis Dimension        Dim             ....  109

ORBITAL ENERGIES
----------------

  NO   OCC          E(Eh)            E(eV)
   0   2.0000     -18.923863      -514.9445
   1   2.0000     -18.888277      -513.9761
   2   2.0000     -18.864288      -513.3234
   3   2.0000     -10.096752      -274.7466
   4   2.0000     -10.082866      -274.3687
   5   2.0000     -10.037806      -273.1426
   6   2.0000     -10.021710      -272.7046
   7   2.0000     -10.018763      -272.6244
   8   2.0000     -10.016658      -272.5671
   9   2.0000     -10.012515      -272.4544
  10   2.0000     -10.012394      -272.4511
  11   2.0000     -10.011983      -272.4399
  12   2.0000     -10.011380      -272.4235
  13   2.0000     -10.011338      -272.4224
  14   2.0000     -10.010863      -272.4094
  15   2.0000     -10.010360      -272.3957
  16   2.0000     -10.009154      -272.3629
  17   2.0000     -10.008937      -272.3570
  18   2.0000     -10.008881      -272.3555
  19   2.0000      -1.004277       -27.3278
  20   2.0000      -0.973035       -26.4776
  21   2.0000      -0.932533       -25.3755
  22   2.0000      -0.814482       -22.1632
  23   2.0000      -0.805500       -21.9188
  24   2.0000      -0.749494       -20.3948
  25   2.0000      -0.719037       -19.5660
  26   2.0000      -0.701443       -19.0872
  27   2.0000      -0.697087       -18.9687
  28   2.0000      -0.685115       -18.6429
  29   2.0000      -0.608575       -16.5602
  30   2.0000      -0.595402       -16.2017
  31   2.0000      -0.566150       -15.4057
  32   2.0000      -0.562149       -15.2968
  33   2.0000      -0.545524       -14.8445
  34   2.0000      -0.508958       -13.8495
  35   2.0000      -0.490412       -13.3448
  36   2.0000      -0.474458       -12.9107
  37   2.0000      -0.456927       -12.4336
  38   2.0000      -0.444786       -12.1032
  39   2.0000      -0.423076       -11.5125
  40   2.0000      -0.415223       -11.2988
  41   2.0000      -0.400914       -10.9094
  42   2.0000      -0.398625       -10.8471
  43   2.0000      -0.383534       -10.4365
  44   2.0000      -0.378285       -10.2937
  45   2.0000      -0.377360       -10.2685
  46   2.0000      -0.364700        -9.9240
  47   2.0000      -0.349493        -9.5102
  48   2.0000      -0.340992        -9.2789
  49   2.0000      -0.339557        -9.2398
  50   2.0000      -0.329904        -8.9772
  51   2.0000      -0.322441        -8.7741
  52   2.0000      -0.314727        -8.5642
  53   2.0000      -0.310855        -8.4588
  54   2.0000      -0.302043        -8.2190
  55   2.0000      -0.299252        -8.1431
  56   2.0000      -0.290292        -7.8992
  57   2.0000      -0.284001        -7.7280
  58   2.0000      -0.277586        -7.5535
  59   2.0000      -0.264211        -7.1895
  60   2.0000      -0.201057        -5.4710
  61   2.0000      -0.197680        -5.3792
  62   2.0000      -0.197048        -5.3619
  63   2.0000      -0.188955        -5.1417
  64   2.0000      -0.179737        -4.8909
  65   2.0000      -0.149068        -4.0564
  66   2.0000      -0.145562        -3.9610
  67   0.0000       0.027065         0.7365
  68   0.0000       0.076153         2.0722
  69   0.0000       0.078980         2.1491
  70   0.0000       0.085557         2.3281
  71   0.0000       0.107509         2.9255

MULLIKEN ATOMIC CHARGES
-----------------------
   0 H :    0.093646
   1 C :   -0.077746
   2 C :   -0.217675
   3 C :    0.207912
   4 O :   -0.230529
   5 O :   -0.230952
   6 C :   -0.015444
   7 C :   -0.081897
   8 C :   -0.023583
   9 C :   -0.077041
  10 C :   -0.081310
  11 C :   -0.080485
  12 C :    0.143405
  13 O :   -0.190245
  14 C :   -0.024844
  15 C :   -0.079745
  16 C :   -0.082142
  17 C :   -0.077950
  18 C :   -0.082604
  19 C :   -0.077477
  20 H :    0.084442
  21 H :    0.082758
  22 H :    0.081795
  23 H :    0.218841
  24 H :    0.092295
  25 H :    0.091930
  26 H :    0.091620
  27 H :    0.091113
  28 H :    0.091444
  29 H :    0.089714
  30 H :    0.090268
  31 H :    0.089827
  32 H :    0.090660
Sum of atomic charges:    0.0000000

LOEWDIN ATOMIC CHARGES
----------------------
   0 H :    0.053911
   1 C :   -0.040321
   2 C :   -0.116710
   3 C :    0.135674
   4 O :   -0.145035
   5 O :   -0.181220
   6 C :   -0.008524
   7 C :   -0.048366
   8 C :   -0.027201
   9 C :   -0.039914
  10 C :   -0.043610
  11 C :   -0.044453
  12 C :    0.107949
  13 O :   -0.137984
  14 C :   -0.028748
  15 C :   -0.042463
  16 C :   -0.045005
  17 C :   -0.038500
  18 C :   -0.045121
  19 C :   -0.040362
  20 H :    0.048509
  21 H :    0.047020
  22 H :    0.046207
  23 H :    0.164043
  24 H :    0.053634
  25 H :    0.052811
  26 H :    0.052721
  27 H :    0.052399
  28 H :    0.052873
  29 H :    0.051178
  30 H :    0.051539
  31 H :    0.051285
  32 H :    0.051787

  Mayer bond orders larger than 0.100000
B(  0-H ,  1-C ) :   0.9489 B(  1-C ,  2-C ) :   0.9821 B(  1-C ,  3-C ) :   0.8773
B(  1-C ,  6-C ) :   0.9781 B(  2-C , 20-H ) :   0.9738 B(  2-C , 21-H ) :   0.9764
B(  2-C , 22-H ) :   0.9763 B(  3-C ,  4-O ) :   1.0643 B(  3-C ,  5-O ) :   1.9019
B(  4-O ,  5-O ) :   0.2264 B(  4-O , 23-H ) :   0.9060 B(  6-C ,  7-C ) :   1.4099
B(  6-C ,  9-C ) :   0.1074 B(  6-C , 11-C ) :   1.3878 B(  7-C ,  8-C ) :   1.3878
B(  7-C , 10-C ) :   0.1064 B(  7-C , 24-H ) :   0.9552 B(  8-C ,  9-C ) :   1.3901
B(  8-C , 11-C ) :   0.1074 B(  8-C , 12-C ) :   0.9569 B(  9-C , 10-C ) :   1.4324
B(  9-C , 25-H ) :   0.9581 B( 10-C , 11-C ) :   1.4357 B( 10-C , 26-H ) :   0.9607
B( 11-C , 27-H ) :   0.9592 B( 12-C , 13-O ) :   1.9153 B( 12-C , 14-C ) :   0.9613
B( 14-C , 15-C ) :   1.3886 B( 14-C , 17-C ) :   0.1089 B( 14-C , 19-C ) :   1.3849
B( 15-C , 16-C ) :   1.4370 B( 15-C , 18-C ) :   0.1106 B( 15-C , 28-H ) :   0.9575
B( 16-C , 17-C ) :   1.4270 B( 16-C , 19-C ) :   0.1113 B( 16-C , 29-H ) :   0.9613
B( 17-C , 18-C ) :   1.4215 B( 17-C , 30-H ) :   0.9617 B( 18-C , 19-C ) :   1.4438
B( 18-C , 31-H ) :   0.9612 B( 19-C , 32-H ) :   0.9580

FINAL SINGLE POINT ENERGY      -832.622820195263

DIPOLE MOMENT
-------------

Method             : SCF
Type of density    : Electron Density
Multiplicity       :   1
Irrep              :   0
Energy             :  -832.6228201952634436 Eh
Relativity type    :
Basis              : AO
                                X                 Y                 Z
Electronic contribution:      3.064493765      -4.203432850       2.042143658
Nuclear contribution   :     -3.655956711       3.641716706      -1.877629193
                        -----------------------------------------
Total Dipole Moment    :     -0.591462947      -0.561716144       0.164514464
                        -----------------------------------------
Magnitude (a.u.)       :      0.832116850
Magnitude (Debye)      :      2.115072946

Rotational constants in cm-1:             0.019854             0.006974             0.005761
Rotational constants in MHz :           595.216509           209.071458           172.704977

                             ****ORCA TERMINATED NORMALLY****
TOTAL RUN TIME: 0 days 0 hours 9 minutes 14 seconds 504 msec
