                         Program Version 6.0.0  -   RELEASE   -
|  1> # ORCA input file
|  2> #
|  3> !PBE STO-3G Opt CPCM(WATER)
|  4> * xyz 0 1
|  5>    H        1.09662        -0.20425         0.32676
|  6>    C        2.13797        -0.11108        -0.01052
|  7>    C        2.12649         0.62804        -1.35353
|  8>    C        2.82666         0.75101         1.05036
|  9>    O        3.42837         0.07530         2.05584
| 10>    O        2.79236         1.97380         1.05318
| 11>    C        2.71761        -1.51246        -0.17817
| 12>    C        1.93400        -2.64563         0.11349
| 13>    C        2.46764        -3.93628        -0.02637
| 14>    C        3.77114        -4.09904        -0.50532
| 15>    C        4.55448        -2.98406        -0.79480
| 16>    C        4.03583        -1.70072        -0.62371
| 17>    C        1.68733        -5.16375         0.28429
| 18>    O        1.87299        -6.17087        -0.39524
| 19>    C        0.70964        -5.21669         1.40278
| 20>    C        0.85415        -4.43205         2.55380
| 21>    C       -0.08941        -4.51477         3.57938
| 22>    C       -1.16344        -5.39791         3.47203
| 23>    C       -1.29213        -6.20776         2.34434
| 24>    C       -0.35568        -6.12155         1.31302
| 25>    H        1.60784         1.58944        -1.26613
| 26>    H        1.61662         0.04215        -2.12585
| 27>    H        3.14163         0.84360        -1.70681
| 28>    H        3.41398        -0.89696         1.96534
| 29>    H        0.90004        -2.51911         0.43007
| 30>    H        4.17798        -5.09810        -0.65507
| 31>    H        5.56968        -3.11822        -1.16231
| 32>    H        4.67199        -0.84709        -0.85704
| 33>    H        1.70284        -3.76706         2.68065
| 34>    H        0.01844        -3.89919         4.46945
| 35>    H       -1.89326        -5.46596         4.27487
| 36>    H       -2.11824        -6.91083         2.26952
| 37>    H       -0.45599        -6.76552         0.44094
| 38> *
| 39>
| 40>                          ****END OF INPUT****
 Total Charge           Charge          ....    0
 Multiplicity           Mult            ....    1
 Number of Electrons    NEL             ....  134
FINAL SINGLE POINT ENERGY      -832.137509753200
FINAL SINGLE POINT ENERGY      -832.167930662016
FINAL SINGLE POINT ENERGY      -832.171532534801
FINAL SINGLE POINT ENERGY      -832.172150109654
FINAL SINGLE POINT ENERGY      -832.172332639574
FINAL SINGLE POINT ENERGY      -832.172407819825
FINAL SINGLE POINT ENERGY      -832.172451595145
FINAL SINGLE POINT ENERGY      -832.172469350266
FINAL SINGLE POINT ENERGY      -832.172475225940
FINAL SINGLE POINT ENERGY      -832.172480568997
FINAL SINGLE POINT ENERGY      -832.172482140817
FINAL SINGLE POINT ENERGY      -832.172483131900
                    ***********************HURRAY********************

CARTESIAN COORDINATES (ANGSTROEM)
---------------------------------
  H      1.019419   -0.277350    0.220483
  C      2.087071   -0.129763   -0.062838
  C      2.138536    0.736154   -1.359882
  C      2.747304    0.697532    1.150633
  O      3.355417   -0.098907    2.165281
  O      2.720279    1.952310    1.259243
  C      2.727015   -1.527136   -0.223870
  C      1.993375   -2.693664    0.128967
  C      2.559698   -3.989813   -0.012955
  C      3.876540   -4.115770   -0.536805
  C      4.621665   -2.965459   -0.877344
  C      4.054600   -1.680707   -0.721369
  C      1.764556   -5.281014    0.289659
  O      1.974804   -6.347692   -0.372643
  C      0.712959   -5.237484    1.418760
  C      0.835239   -4.386030    2.552321
  C     -0.122646   -4.438833    3.590177
  C     -1.213965   -5.335966    3.506884
  C     -1.338966   -6.195614    2.388165
  C     -0.376523   -6.152451    1.357244
  H      1.753051    1.748649   -1.133574
  H      1.516026    0.282383   -2.153552
  H      3.175313    0.831627   -1.731773
  H      3.256328   -1.059829    1.780151
  H      0.958405   -2.586915    0.501016
  H      4.304834   -5.126504   -0.667753
  H      5.649237   -3.068216   -1.269825
  H      4.643498   -0.785355   -0.990048
  H      1.693100   -3.694711    2.628856
  H     -0.016629   -3.778529    4.469429
  H     -1.964064   -5.370580    4.317288
  H     -2.186599   -6.901165    2.324674
  H     -0.452706   -6.826769    0.484239

 Multiplicity           Mult            ....    1
 Number of Electrons    NEL             ....  134
 Basis Dimension        Dim             ....  109

ORBITAL ENERGIES
----------------

  NO   OCC          E(Eh)            E(eV)
   0   2.0000     -18.552036      -504.8266
   1   2.0000     -18.511475      -503.7228
   2   2.0000     -18.485493      -503.0158
   3   2.0000      -9.790280      -266.4071
   4   2.0000      -9.786898      -266.3150
   5   2.0000      -9.744134      -265.1514
   6   2.0000      -9.733712      -264.8678
   7   2.0000      -9.729812      -264.7616
   8   2.0000      -9.727375      -264.6953
   9   2.0000      -9.723895      -264.6006
  10   2.0000      -9.723655      -264.5941
  11   2.0000      -9.723162      -264.5807
  12   2.0000      -9.722468      -264.5618
  13   2.0000      -9.722066      -264.5509
  14   2.0000      -9.721812      -264.5440
  15   2.0000      -9.720990      -264.5216
  16   2.0000      -9.720063      -264.4964
  17   2.0000      -9.719751      -264.4879
  18   2.0000      -9.715625      -264.3756
  19   2.0000      -0.911881       -24.8136
  20   2.0000      -0.882063       -24.0022
  21   2.0000      -0.843777       -22.9603
  22   2.0000      -0.738678       -20.1004
  23   2.0000      -0.729521       -19.8513
  24   2.0000      -0.676723       -18.4146
  25   2.0000      -0.649066       -17.6620
  26   2.0000      -0.631983       -17.1971
  27   2.0000      -0.627962       -17.0877
  28   2.0000      -0.616565       -16.7776
  29   2.0000      -0.545090       -14.8327
  30   2.0000      -0.532110       -14.4795
  31   2.0000      -0.507288       -13.8040
  32   2.0000      -0.503368       -13.6973
  33   2.0000      -0.486993       -13.2517
  34   2.0000      -0.452444       -12.3116
  35   2.0000      -0.434531       -11.8242
  36   2.0000      -0.421868       -11.4796
  37   2.0000      -0.404591       -11.0095
  38   2.0000      -0.392233       -10.6732
  39   2.0000      -0.372440       -10.1346
  40   2.0000      -0.366952        -9.9853
  41   2.0000      -0.352623        -9.5954
  42   2.0000      -0.350456        -9.5364
  43   2.0000      -0.335450        -9.1281
  44   2.0000      -0.330639        -8.9971
  45   2.0000      -0.329672        -8.9708
  46   2.0000      -0.316895        -8.6232
  47   2.0000      -0.299646        -8.1538
  48   2.0000      -0.293550        -7.9879
  49   2.0000      -0.289751        -7.8845
  50   2.0000      -0.284856        -7.7513
  51   2.0000      -0.272542        -7.4162
  52   2.0000      -0.270436        -7.3589
  53   2.0000      -0.265946        -7.2368
  54   2.0000      -0.256278        -6.9737
  55   2.0000      -0.253926        -6.9097
  56   2.0000      -0.242896        -6.6095
  57   2.0000      -0.240774        -6.5518
  58   2.0000      -0.237386        -6.4596
  59   2.0000      -0.213369        -5.8061
  60   2.0000      -0.173458        -4.7200
  61   2.0000      -0.170268        -4.6332
  62   2.0000      -0.169136        -4.6024
  63   2.0000      -0.161829        -4.4036
  64   2.0000      -0.132326        -3.6008
  65   2.0000      -0.095274        -2.5925
  66   2.0000      -0.093620        -2.5475
  67   0.0000      -0.007714        -0.2099
  68   0.0000       0.039771         1.0822
  69   0.0000       0.043211         1.1758
  70   0.0000       0.049621         1.3503
  71   0.0000       0.072523         1.9734

MULLIKEN ATOMIC CHARGES
-----------------------
   0 H :    0.098572
   1 C :   -0.084793
   2 C :   -0.233407
   3 C :    0.166724
   4 O :   -0.199077
   5 O :   -0.209879
   6 C :   -0.024625
   7 C :   -0.087282
   8 C :   -0.025194
   9 C :   -0.082975
  10 C :   -0.087547
  11 C :   -0.085964
  12 C :    0.123530
  13 O :   -0.168732
  14 C :   -0.026382
  15 C :   -0.085698
  16 C :   -0.088295
  17 C :   -0.084231
  18 C :   -0.088787
  19 C :   -0.083617
  20 H :    0.089438
  21 H :    0.087547
  22 H :    0.086360
  23 H :    0.214911
  24 H :    0.098924
  25 H :    0.098366
  26 H :    0.098736
  27 H :    0.098565
  28 H :    0.097731
  29 H :    0.096580
  30 H :    0.097039
  31 H :    0.096666
  32 H :    0.096795
Sum of atomic charges:   -0.0000000

LOEWDIN ATOMIC CHARGES
----------------------
   0 H :    0.057971
   1 C :   -0.047065
   2 C :   -0.128850
   3 C :    0.098189
   4 O :   -0.118565
   5 O :   -0.163006
   6 C :   -0.015686
   7 C :   -0.052085
   8 C :   -0.029227
   9 C :   -0.044270
  10 C :   -0.048184
  11 C :   -0.048358
  12 C :    0.091585
  13 O :   -0.120168
  14 C :   -0.030656
  15 C :   -0.046857
  16 C :   -0.049466
  17 C :   -0.043185
  18 C :   -0.049599
  19 C :   -0.044942
  20 H :    0.052437
  21 H :    0.050551
  22 H :    0.049783
  23 H :    0.162899
  24 H :    0.058728
  25 H :    0.057730
  26 H :    0.058190
  27 H :    0.058241
  28 H :    0.057724
  29 H :    0.056442
  30 H :    0.056713
  31 H :    0.056524
  32 H :    0.056462

  Mayer bond orders larger than 0.100000
B(  0-H ,  1-C ) :   0.9432 B(  1-C ,  2-C ) :   0.9830 B(  1-C ,  3-C ) :   0.8581
B(  1-C ,  6-C ) :   0.9834 B(  2-C , 20-H ) :   0.9697 B(  2-C , 21-H ) :   0.9736
B(  2-C , 22-H ) :   0.9731 B(  3-C ,  4-O ) :   1.0944 B(  3-C ,  5-O ) :   1.8892
B(  4-O ,  5-O ) :   0.2620 B(  4-O , 23-H ) :   0.8843 B(  6-C ,  7-C ) :   1.3909
B(  6-C ,  9-C ) :   0.1039 B(  6-C , 11-C ) :   1.3714 B(  7-C ,  8-C ) :   1.3834
B(  7-C , 10-C ) :   0.1040 B(  7-C , 24-H ) :   0.9497 B(  8-C ,  9-C ) :   1.3787
B(  8-C , 11-C ) :   0.1047 B(  8-C , 12-C ) :   0.9564 B(  9-C , 10-C ) :   1.4323
B(  9-C , 25-H ) :   0.9529 B( 10-C , 11-C ) :   1.4335 B( 10-C , 26-H ) :   0.9559
B( 11-C , 27-H ) :   0.9537 B( 12-C , 13-O ) :   1.9057 B( 12-C , 14-C ) :   0.9625
B( 14-C , 15-C ) :   1.3796 B( 14-C , 17-C ) :   0.1073 B( 14-C , 19-C ) :   1.3761
B( 15-C , 16-C ) :   1.4363 B( 15-C , 18-C ) :   0.1096 B( 15-C , 28-H ) :   0.9522
B( 16-C , 17-C ) :   1.4244 B( 16-C , 19-C ) :   0.1108 B( 16-C , 29-H ) :   0.9566
B( 17-C , 18-C ) :   1.4173 B( 17-C , 30-H ) :   0.9571 B( 18-C , 19-C ) :   1.4449
B( 18-C , 31-H ) :   0.9565 B( 19-C , 32-H ) :   0.9528

FINAL SINGLE POINT ENERGY      -832.172483503543

DIPOLE MOMENT
-------------

Method             : SCF
Type of density    : Electron Density
Multiplicity       :   1
Irrep              :   0
Energy             :  -832.1724835035433898 Eh
Relativity type    :
Basis              : AO
                                X                 Y                 Z
Electronic contribution:      2.394877094      -4.564956437       2.507793208
Nuclear contribution   :     -2.719100266       4.026130252      -2.543065098
                        -----------------------------------------
Total Dipole Moment    :     -0.324223172      -0.538826186      -0.035271890
                        -----------------------------------------
Magnitude (a.u.)       :      0.629840004
Magnitude (Debye)      :      1.600926061

Rotational constants in cm-1:             0.019176             0.007179             0.005805
Rotational constants in MHz :           574.890725           215.225216           174.039998

                             ****ORCA TERMINATED NORMALLY****
TOTAL RUN TIME: 0 days 0 hours 3 minutes 13 seconds 814 msec
