                         Program Version 6.0.0  -   RELEASE   -
|  1> # ORCA input file
|  2> #
|  3> !PBE def2-TZVP Opt CPCM(WATER)
|  4> * xyz 0 1
|  5>    H        2.19682        -0.91154         0.64044
|  6>    C        2.08274        -0.07230        -0.06151
|  7>    C        0.61781         0.37039        -0.01313
|  8>    C        2.95733         1.04661         0.51400
|  9>    O        4.28094         0.77780         0.52831
| 10>    O        2.52215         2.08691         0.98966
| 11>    C        2.46394        -0.56230        -1.45986
| 12>    C        2.32706        -1.92842        -1.78584
| 13>    C        2.67594        -2.40638        -3.06924
| 14>    C        3.08558        -1.51093        -4.05073
| 15>    C        3.20379        -0.15525        -3.74761
| 16>    C        2.90509         0.31130        -2.46255
| 17>    C        2.63455        -3.85377        -3.42227
| 18>    O        2.31712        -4.18658        -4.56116
| 19>    C        3.03282        -4.89946        -2.43983
| 20>    C        3.93140        -4.62386        -1.40002
| 21>    C        4.30356        -5.63104        -0.51010
| 22>    C        3.79973        -6.92143        -0.66808
| 23>    C        2.92349        -7.20672        -1.71455
| 24>    C        2.54088        -6.19946        -2.60247
| 25>    H        0.34865         0.71015         0.99629
| 26>    H       -0.06373        -0.44391        -0.27769
| 27>    H        0.43042         1.20885        -0.69604
| 28>    H        4.52517        -0.07595         0.12336
| 29>    H        1.94296        -2.62253        -1.04434
| 30>    H        3.32225        -1.86705        -5.05606
| 31>    H        3.53216         0.53830        -4.52112
| 32>    H        3.01182         1.37929        -2.26715
| 33>    H        4.36991        -3.63997        -1.27773
| 34>    H        4.99900        -5.41307         0.29648
| 35>    H        4.10396        -7.70787         0.01569
| 36>    H        2.54331        -8.21744        -1.84315
| 37>    H        1.86720        -6.43272        -3.42364
| 38> *
| 39>
| 40>                          ****END OF INPUT****
 Total Charge           Charge          ....    0
 Multiplicity           Mult            ....    1
 Number of Electrons    NEL             ....  134
FINAL SINGLE POINT ENERGY      -843.133613741756
FINAL SINGLE POINT ENERGY      -843.136932447634
FINAL SINGLE POINT ENERGY      -843.137273490855
FINAL SINGLE POINT ENERGY      -843.137971181089
FINAL SINGLE POINT ENERGY      -843.138071823457
FINAL SINGLE POINT ENERGY      -843.138159742166
FINAL SINGLE POINT ENERGY      -843.138277590625
FINAL SINGLE POINT ENERGY      -843.138358156421
FINAL SINGLE POINT ENERGY      -843.138386753934
FINAL SINGLE POINT ENERGY      -843.138396668027
FINAL SINGLE POINT ENERGY      -843.138404613058
FINAL SINGLE POINT ENERGY      -843.138413744253
FINAL SINGLE POINT ENERGY      -843.138426938724
FINAL SINGLE POINT ENERGY      -843.138419382125
FINAL SINGLE POINT ENERGY      -843.138444666249
FINAL SINGLE POINT ENERGY      -843.138449927189
FINAL SINGLE POINT ENERGY      -843.138452462771
                    ***********************HURRAY********************

CARTESIAN COORDINATES (ANGSTROEM)
---------------------------------
  H      1.908492   -1.000786    0.547282
  C      1.964584   -0.106554   -0.097700
  C      0.600281    0.589387   -0.100206
  C      3.047711    0.785283    0.514946
  O      4.252792    0.198273    0.726705
  O      2.901534    1.954064    0.818575
  C      2.380843   -0.575035   -1.487337
  C      2.441553   -1.941265   -1.785405
  C      2.771293   -2.386675   -3.076769
  C      3.049589   -1.442605   -4.078664
  C      3.019546   -0.081251   -3.782889
  C      2.683062    0.351690   -2.497396
  C      2.759276   -3.838128   -3.440650
  O      2.445058   -4.183494   -4.585389
  C      3.125848   -4.866638   -2.420309
  C      4.072701   -4.616624   -1.411232
  C      4.442523   -5.631412   -0.526393
  C      3.854582   -6.895769   -0.624630
  C      2.906656   -7.151634   -1.623349
  C      2.555423   -6.148391   -2.523448
  H      0.311999    0.880154    0.918871
  H     -0.162196   -0.093218   -0.498861
  H      0.618906    1.493323   -0.723937
  H      4.233992   -0.738655    0.441884
  H      2.197861   -2.666456   -1.006372
  H      3.298760   -1.789931   -5.082466
  H      3.257212    0.650796   -4.556701
  H      2.653612    1.422283   -2.280139
  H      4.543186   -3.635203   -1.335884
  H      5.191983   -5.433815    0.242001
  H      4.136349   -7.684523    0.075524
  H      2.444585   -8.137608   -1.698864
  H      1.826226   -6.339931   -3.312438

 Multiplicity           Mult            ....    1
 Number of Electrons    NEL             ....  134
 Basis Dimension        Dim             ....  673

ORBITAL ENERGIES
----------------

  NO   OCC          E(Eh)            E(eV)
   0   2.0000     -18.802000      -511.6284
   1   2.0000     -18.747225      -510.1379
   2   2.0000     -18.746188      -510.1097
   3   2.0000     -10.015962      -272.5482
   4   2.0000      -9.978077      -271.5173
   5   2.0000      -9.916695      -269.8470
   6   2.0000      -9.914291      -269.7816
   7   2.0000      -9.908996      -269.6375
   8   2.0000      -9.907080      -269.5853
   9   2.0000      -9.903554      -269.4894
  10   2.0000      -9.901528      -269.4343
  11   2.0000      -9.901255      -269.4268
  12   2.0000      -9.900083      -269.3950
  13   2.0000      -9.898922      -269.3634
  14   2.0000      -9.898781      -269.3595
  15   2.0000      -9.898317      -269.3469
  16   2.0000      -9.896051      -269.2852
  17   2.0000      -9.895897      -269.2811
  18   2.0000      -9.878606      -268.8105
  19   2.0000      -1.016763       -27.6675
  20   2.0000      -0.956006       -26.0143
  21   2.0000      -0.938519       -25.5384
  22   2.0000      -0.800099       -21.7718
  23   2.0000      -0.789599       -21.4861
  24   2.0000      -0.740406       -20.1475
  25   2.0000      -0.709129       -19.2964
  26   2.0000      -0.687091       -18.6967
  27   2.0000      -0.682992       -18.5852
  28   2.0000      -0.671062       -18.2605
  29   2.0000      -0.601376       -16.3643
  30   2.0000      -0.597377       -16.2555
  31   2.0000      -0.563238       -15.3265
  32   2.0000      -0.560781       -15.2596
  33   2.0000      -0.553695       -15.0668
  34   2.0000      -0.539578       -14.6827
  35   2.0000      -0.507719       -13.8157
  36   2.0000      -0.483997       -13.1702
  37   2.0000      -0.460443       -12.5293
  38   2.0000      -0.452782       -12.3208
  39   2.0000      -0.433845       -11.8055
  40   2.0000      -0.424125       -11.5410
  41   2.0000      -0.416861       -11.3434
  42   2.0000      -0.414757       -11.2861
  43   2.0000      -0.408321       -11.1110
  44   2.0000      -0.396792       -10.7973
  45   2.0000      -0.389939       -10.6108
  46   2.0000      -0.384986       -10.4760
  47   2.0000      -0.381047       -10.3688
  48   2.0000      -0.376431       -10.2432
  49   2.0000      -0.374157       -10.1813
  50   2.0000      -0.362259        -9.8576
  51   2.0000      -0.354961        -9.6590
  52   2.0000      -0.340303        -9.2601
  53   2.0000      -0.330193        -8.9850
  54   2.0000      -0.327264        -8.9053
  55   2.0000      -0.319765        -8.7012
  56   2.0000      -0.317525        -8.6403
  57   2.0000      -0.315841        -8.5945
  58   2.0000      -0.305034        -8.3004
  59   2.0000      -0.301453        -8.2029
  60   2.0000      -0.289168        -7.8687
  61   2.0000      -0.252260        -6.8643
  62   2.0000      -0.246630        -6.7111
  63   2.0000      -0.244234        -6.6460
  64   2.0000      -0.241965        -6.5842
  65   2.0000      -0.233246        -6.3469
  66   2.0000      -0.219511        -5.9732
  67   0.0000      -0.108481        -2.9519
  68   0.0000      -0.063223        -1.7204
  69   0.0000      -0.059746        -1.6258
  70   0.0000      -0.050822        -1.3829
  71   0.0000      -0.037866        -1.0304

MULLIKEN ATOMIC CHARGES
-----------------------
   0 H :    0.140663
   1 C :   -0.041537
   2 C :   -0.414529
   3 C :    0.223065
   4 O :   -0.322460
   5 O :   -0.328814
   6 C :    0.135277
   7 C :   -0.350146
   8 C :    0.235582
   9 C :   -0.209513
  10 C :   -0.128085
  11 C :   -0.191721
  12 C :    0.153235
  13 O :   -0.342889
  14 C :    0.182286
  15 C :   -0.232158
  16 C :   -0.132411
  17 C :   -0.117599
  18 C :   -0.128883
  19 C :   -0.207001
  20 H :    0.139612
  21 H :    0.138489
  22 H :    0.135971
  23 H :    0.363893
  24 H :    0.154472
  25 H :    0.134601
  26 H :    0.143407
  27 H :    0.141904
  28 H :    0.162132
  29 H :    0.142767
  30 H :    0.144866
  31 H :    0.142513
  32 H :    0.133011
Sum of atomic charges:    0.0000000

LOEWDIN ATOMIC CHARGES
----------------------
   0 H :    0.186948
   1 C :   -0.219463
   2 C :   -0.270262
   3 C :   -0.482967
   4 O :    0.115897
   5 O :    0.083318
   6 C :   -0.125000
   7 C :   -0.062566
   8 C :   -0.116502
   9 C :   -0.088864
  10 C :   -0.128746
  11 C :   -0.085042
  12 C :   -0.248201
  13 O :    0.095232
  14 C :   -0.122091
  15 C :   -0.094898
  16 C :   -0.136553
  17 C :   -0.125122
  18 C :   -0.135550
  19 C :   -0.091593
  20 H :    0.132625
  21 H :    0.134153
  22 H :    0.132059
  23 H :    0.217833
  24 H :    0.168044
  25 H :    0.158697
  26 H :    0.157525
  27 H :    0.162748
  28 H :    0.162783
  29 H :    0.156014
  30 H :    0.155798
  31 H :    0.155772
  32 H :    0.157974

  Mayer bond orders larger than 0.100000
B(  0-H ,  1-C ) :   0.9099 B(  1-C ,  2-C ) :   0.9791 B(  1-C ,  3-C ) :   0.9688
B(  1-C ,  6-C ) :   0.9056 B(  2-C , 20-H ) :   0.9599 B(  2-C , 21-H ) :   0.9592
B(  2-C , 22-H ) :   0.9607 B(  3-C ,  4-O ) :   1.2558 B(  3-C ,  5-O ) :   2.1002
B(  4-O , 23-H ) :   0.8393 B(  6-C ,  7-C ) :   1.3377 B(  6-C , 11-C ) :   1.3115
B(  7-C ,  8-C ) :   1.3088 B(  7-C , 24-H ) :   0.9704 B(  8-C ,  9-C ) :   1.2937
B(  8-C , 12-C ) :   0.9440 B(  9-C , 10-C ) :   1.3987 B(  9-C , 25-H ) :   0.9708
B( 10-C , 11-C ) :   1.3770 B( 10-C , 26-H ) :   0.9718 B( 11-C , 27-H ) :   0.9665
B( 12-C , 13-O ) :   2.0272 B( 12-C , 14-C ) :   0.9694 B( 14-C , 15-C ) :   1.3047
B( 14-C , 19-C ) :   1.2984 B( 15-C , 16-C ) :   1.4036 B( 15-C , 28-H ) :   0.9606
B( 16-C , 17-C ) :   1.3839 B( 16-C , 29-H ) :   0.9673 B( 17-C , 18-C ) :   1.3676
B( 17-C , 30-H ) :   0.9619 B( 18-C , 19-C ) :   1.4261 B( 18-C , 31-H ) :   0.9681
B( 19-C , 32-H ) :   0.9702

FINAL SINGLE POINT ENERGY      -843.138452563410

DIPOLE MOMENT
-------------

Method             : SCF
Type of density    : Electron Density
Multiplicity       :   1
Irrep              :   0
Energy             :  -843.1384525634096008 Eh
Relativity type    :
Basis              : AO
                                X                 Y                 Z
Electronic contribution:      4.006869076      -1.264312326      -3.361950019
Nuclear contribution   :     -3.948348338      -0.284734484       4.318054025
                        -----------------------------------------
Total Dipole Moment    :      0.058520738      -1.549046810       0.956104006
                        -----------------------------------------
Magnitude (a.u.)       :      1.821292279
Magnitude (Debye)      :      4.629357073

Rotational constants in cm-1:             0.020905             0.007098             0.005916
Rotational constants in MHz :           626.723734           212.790354           177.368359

                             ****ORCA TERMINATED NORMALLY****
TOTAL RUN TIME: 0 days 0 hours 28 minutes 1 seconds 609 msec
