                         Program Version 6.0.0  -   RELEASE   -
|  1> # ORCA input file
|  2> #
|  3> !TPSS 6-311+G** Opt CPCM(WATER)
|  4> * xyz 0 1
|  5>    C        2.95021        -0.38900         1.26274
|  6>    C        2.52045        -1.27848         0.09338
|  7>    C        0.99553        -1.40741         0.07675
|  8>    C        3.03305        -0.73504        -1.25720
|  9>    C        4.54216        -0.63179        -1.32375
| 10>    C        5.34421        -1.77303        -1.21037
| 11>    C        6.73846        -1.66838        -1.22843
| 12>    C        7.36134        -0.42186        -1.38715
| 13>    C        6.55228         0.71875        -1.50569
| 14>    C        5.15995         0.61450        -1.47446
| 15>    C        8.87998        -0.34092        -1.48484
| 16>    C        9.28189         0.24772        -2.84195
| 17>    C        9.61173         0.40524        -0.37163
| 18>    O        8.87745         0.76600         0.70549
| 19>    O       10.81195         0.64384        -0.41318
| 20>    H        2.59304        -0.80141         2.21203
| 21>    H        2.55000         0.62512         1.15790
| 22>    H        4.04024        -0.31777         1.33342
| 23>    H        2.93334        -2.27988         0.25826
| 24>    H        0.51345        -0.43617        -0.07745
| 25>    H        0.63424        -1.81602         1.02656
| 26>    H        0.66784        -2.08146        -0.72144
| 27>    H        2.58341         0.24756        -1.45114
| 28>    H        2.69896        -1.38702        -2.07513
| 29>    H        4.88886        -2.75489        -1.10326
| 30>    H        7.32748        -2.57887        -1.13792
| 31>    H        6.99599         1.70432        -1.63567
| 32>    H        4.56054         1.51848        -1.56984
| 33>    H        9.27510        -1.36482        -1.43749
| 34>    H        8.93076         1.27903        -2.95691
| 35>    H        8.86386        -0.34431        -3.66356
| 36>    H       10.37078         0.26519        -2.96132
| 37>    H        7.93807         0.51129         0.66734
| 38> *
| 39>
| 40>                          ****END OF INPUT****
 Total Charge           Charge          ....    0
 Multiplicity           Mult            ....    1
 Number of Electrons    NEL             ....  112
FINAL SINGLE POINT ENERGY      -656.996080448698
FINAL SINGLE POINT ENERGY      -656.998529086907
FINAL SINGLE POINT ENERGY      -656.999122668929
FINAL SINGLE POINT ENERGY      -656.999287158061
FINAL SINGLE POINT ENERGY      -656.999557230832
FINAL SINGLE POINT ENERGY      -656.999600511740
FINAL SINGLE POINT ENERGY      -656.999639031387
FINAL SINGLE POINT ENERGY      -656.999699782914
FINAL SINGLE POINT ENERGY      -656.999753923801
FINAL SINGLE POINT ENERGY      -656.999833848614
FINAL SINGLE POINT ENERGY      -656.999902101729
FINAL SINGLE POINT ENERGY      -656.999936685219
FINAL SINGLE POINT ENERGY      -656.999953274333
FINAL SINGLE POINT ENERGY      -656.999959090972
FINAL SINGLE POINT ENERGY      -656.999962516481
FINAL SINGLE POINT ENERGY      -656.999963325832
                    ***********************HURRAY********************

CARTESIAN COORDINATES (ANGSTROEM)
---------------------------------
  C      2.837749   -0.176083    1.262016
  C      2.510315   -1.207783    0.168571
  C      0.995582   -1.472220    0.098913
  C      3.035258   -0.760819   -1.224655
  C      4.543546   -0.634856   -1.309917
  C      5.361635   -1.778274   -1.296589
  C      6.754997   -1.670662   -1.361464
  C      7.377615   -0.413544   -1.446461
  C      6.563554    0.733160   -1.463698
  C      5.171340    0.620736   -1.394797
  C      8.897208   -0.306011   -1.551499
  C      9.371244    0.261937   -2.902724
  C      9.506395    0.472688   -0.377206
  O      8.980502    0.216299    0.852387
  O     10.436751    1.254656   -0.463713
  H      2.474810   -0.519547    2.239007
  H      2.355335    0.786160    1.039909
  H      3.917914   -0.002895    1.342457
  H      3.012058   -2.153315    0.424113
  H      0.454912   -0.554372   -0.170988
  H      0.614147   -1.816050    1.068747
  H      0.761053   -2.237445   -0.652104
  H      2.572663    0.201912   -1.482886
  H      2.694905   -1.495032   -1.968506
  H      4.905217   -2.765478   -1.240392
  H      7.367243   -2.571251   -1.353911
  H      7.016941    1.721136   -1.531093
  H      4.560787    1.522211   -1.410395
  H      9.304174   -1.322870   -1.440372
  H      9.002998    1.283070   -3.049427
  H      8.989876   -0.366742   -3.713840
  H     10.464464    0.275363   -2.951357
  H      8.213410   -0.385567    0.765966

 Multiplicity           Mult            ....    1
 Number of Electrons    NEL             ....  112
 Basis Dimension        Dim             ....  438

ORBITAL ENERGIES
----------------

  NO   OCC          E(Eh)            E(eV)
   0   2.0000     -18.932802      -515.1877
   1   2.0000     -18.880883      -513.7749
   2   2.0000     -10.122424      -275.4452
   3   2.0000     -10.018492      -272.6170
   4   2.0000     -10.004564      -272.2380
   5   2.0000      -9.998144      -272.0633
   6   2.0000      -9.994282      -271.9582
   7   2.0000      -9.993878      -271.9472
   8   2.0000      -9.990552      -271.8567
   9   2.0000      -9.990112      -271.8448
  10   2.0000      -9.988015      -271.7877
  11   2.0000      -9.983306      -271.6596
  12   2.0000      -9.982427      -271.6357
  13   2.0000      -9.969683      -271.2889
  14   2.0000      -9.968712      -271.2625
  15   2.0000      -1.038471       -28.2582
  16   2.0000      -0.960240       -26.1295
  17   2.0000      -0.806594       -21.9485
  18   2.0000      -0.759675       -20.6718
  19   2.0000      -0.735176       -20.0052
  20   2.0000      -0.693676       -18.8759
  21   2.0000      -0.687057       -18.6958
  22   2.0000      -0.628436       -17.1006
  23   2.0000      -0.625556       -17.0222
  24   2.0000      -0.605139       -16.4667
  25   2.0000      -0.568093       -15.4586
  26   2.0000      -0.560010       -15.2386
  27   2.0000      -0.536979       -14.6119
  28   2.0000      -0.509644       -13.8681
  29   2.0000      -0.481712       -13.1080
  30   2.0000      -0.457818       -12.4579
  31   2.0000      -0.433436       -11.7944
  32   2.0000      -0.420528       -11.4432
  33   2.0000      -0.415401       -11.3036
  34   2.0000      -0.404401       -11.0043
  35   2.0000      -0.403680       -10.9847
  36   2.0000      -0.392625       -10.6839
  37   2.0000      -0.382821       -10.4171
  38   2.0000      -0.380899       -10.3648
  39   2.0000      -0.377891       -10.2829
  40   2.0000      -0.364431        -9.9167
  41   2.0000      -0.347716        -9.4618
  42   2.0000      -0.341485        -9.2923
  43   2.0000      -0.335642        -9.1333
  44   2.0000      -0.327523        -8.9124
  45   2.0000      -0.324457        -8.8289
  46   2.0000      -0.323157        -8.7936
  47   2.0000      -0.307127        -8.3573
  48   2.0000      -0.301670        -8.2089
  49   2.0000      -0.292729        -7.9656
  50   2.0000      -0.290828        -7.9138
  51   2.0000      -0.285658        -7.7732
  52   2.0000      -0.282320        -7.6823
  53   2.0000      -0.251012        -6.8304
  54   2.0000      -0.234282        -6.3751
  55   2.0000      -0.218815        -5.9543
  56   0.0000      -0.048109        -1.3091
  57   0.0000      -0.047080        -1.2811
  58   0.0000      -0.035839        -0.9752
  59   0.0000      -0.006873        -0.1870
  60   0.0000       0.006794         0.1849

MULLIKEN ATOMIC CHARGES
-----------------------
   0 C :   -0.761402
   1 C :    0.645132
   2 C :   -0.867000
   3 C :   -1.407293
   4 C :    2.048741
   5 C :   -0.714275
   6 C :   -0.444124
   7 C :    1.080397
   8 C :   -0.895772
   9 C :   -0.656390
  10 C :    0.020228
  11 C :   -0.737000
  12 C :   -0.057027
  13 O :   -0.186177
  14 O :   -0.338062
  15 H :    0.162317
  16 H :    0.169447
  17 H :    0.170676
  18 H :    0.156627
  19 H :    0.167516
  20 H :    0.162249
  21 H :    0.162722
  22 H :    0.179969
  23 H :    0.185728
  24 H :    0.154805
  25 H :    0.157436
  26 H :    0.167245
  27 H :    0.152601
  28 H :    0.227149
  29 H :    0.194506
  30 H :    0.179124
  31 H :    0.179542
  32 H :    0.340367
Sum of atomic charges:   -0.0000000

LOEWDIN ATOMIC CHARGES
----------------------
   0 C :   -0.120221
   1 C :   -0.163371
   2 C :   -0.123430
   3 C :   -0.106769
   4 C :   -0.112325
   5 C :   -0.061449
   6 C :   -0.056540
   7 C :   -0.137988
   8 C :   -0.056261
   9 C :   -0.063128
  10 C :   -0.115966
  11 C :   -0.079283
  12 C :   -0.004929
  13 O :   -0.057285
  14 O :   -0.216168
  15 H :    0.059747
  16 H :    0.068852
  17 H :    0.066817
  18 H :    0.075098
  19 H :    0.065071
  20 H :    0.058996
  21 H :    0.059351
  22 H :    0.086501
  23 H :    0.085474
  24 H :    0.089883
  25 H :    0.090223
  26 H :    0.095819
  27 H :    0.088971
  28 H :    0.115471
  29 H :    0.075931
  30 H :    0.071900
  31 H :    0.069342
  32 H :    0.151667

  Mayer bond orders larger than 0.100000
B(  0-C ,  1-C ) :   0.6371 B(  0-C ,  2-C ) :  -0.1530 B(  0-C , 15-H ) :   1.0132
B(  0-C , 16-H ) :   1.0116 B(  0-C , 17-H ) :   0.9991 B(  1-C ,  2-C ) :   0.4315
B(  1-C ,  3-C ) :   0.4399 B(  1-C ,  5-C ) :   0.1079 B(  1-C , 18-H ) :   0.9844
B(  2-C ,  3-C ) :   0.5219 B(  2-C ,  4-C ) :  -0.4471 B(  2-C ,  5-C ) :   0.1151
B(  2-C , 19-H ) :   1.0380 B(  2-C , 20-H ) :   1.0066 B(  2-C , 21-H ) :   1.0039
B(  3-C ,  4-C ) :  -1.4179 B(  3-C ,  5-C ) :   0.3440 B(  3-C ,  6-C ) :   0.1217
B(  3-C ,  7-C ) :  -0.2007 B(  3-C ,  8-C ) :   0.1749 B(  3-C , 22-H ) :   1.3223
B(  3-C , 23-H ) :   1.1608 B(  4-C ,  5-C ) :   0.9539 B(  4-C ,  7-C ) :   0.6207
B(  4-C ,  8-C ) :  -0.2800 B(  4-C ,  9-C ) :   1.1452 B(  4-C , 10-C ) :  -0.1687
B(  4-C , 18-H ) :  -0.1334 B(  4-C , 22-H ) :  -0.5124 B(  4-C , 23-H ) :  -0.2215
B(  5-C ,  6-C ) :   1.0546 B(  5-C ,  9-C ) :   0.5208 B(  5-C , 24-H ) :   1.0380
B(  6-C ,  7-C ) :   1.2976 B(  6-C ,  8-C ) :   0.3476 B(  6-C ,  9-C ) :  -0.2558
B(  6-C , 12-C ) :  -0.1916 B(  6-C , 13-O ) :  -0.1528 B(  6-C , 24-H ) :  -0.1039
B(  6-C , 25-H ) :   1.0069 B(  6-C , 28-H ) :   0.1364 B(  7-C ,  8-C ) :   1.1317
B(  7-C , 10-C ) :   0.2232 B(  7-C , 11-C ) :  -0.4265 B(  7-C , 12-C ) :  -0.3895
B(  7-C , 13-O ) :   0.4206 B(  7-C , 28-H ) :  -0.3221 B(  7-C , 29-H ) :  -0.1812
B(  7-C , 32-H ) :   0.1839 B(  8-C ,  9-C ) :   1.1483 B(  8-C , 10-C ) :   0.1435
B(  8-C , 11-C ) :   0.4134 B(  8-C , 12-C ) :   0.5706 B(  8-C , 14-O ) :  -0.1775
B(  8-C , 26-H ) :   0.9890 B(  9-C , 10-C ) :   0.2592 B(  9-C , 22-H ) :   0.1982
B(  9-C , 27-H ) :   1.0011 B( 10-C , 11-C ) :   0.8704 B( 10-C , 12-C ) :   0.8496
B( 10-C , 13-O ) :  -0.3173 B( 10-C , 28-H ) :   1.0774 B( 10-C , 29-H ) :   0.1107
B( 11-C , 12-C ) :  -0.1026 B( 11-C , 29-H ) :   0.9625 B( 11-C , 30-H ) :   1.0060
B( 11-C , 31-H ) :   0.9905 B( 12-C , 13-O ) :   1.3658 B( 12-C , 14-O ) :   2.0662
B( 13-O , 32-H ) :   0.8249

FINAL SINGLE POINT ENERGY      -656.999963689738

DIPOLE MOMENT
-------------

Method             : SCF
Type of density    : Electron Density
Multiplicity       :   1
Irrep              :   0
Energy             :  -656.9999636897381379 Eh
Relativity type    :
Basis              : AO
                                X                 Y                 Z
Electronic contribution:     19.158531711       2.989198152      -0.678389048
Nuclear contribution   :    -21.150595684      -4.569482074       0.053123309
                        -----------------------------------------
Total Dipole Moment    :     -1.992063973      -1.580283922      -0.625265739
                        -----------------------------------------
Magnitude (a.u.)       :      2.618505946
Magnitude (Debye)      :      6.655713177

Rotational constants in cm-1:             0.048074             0.008439             0.007942
Rotational constants in MHz :          1441.228937           253.009802           238.109847

                             ****ORCA TERMINATED NORMALLY****
TOTAL RUN TIME: 0 days 0 hours 23 minutes 50 seconds 480 msec
