                         Program Version 6.0.0  -   RELEASE   -
|  1> # ORCA input file
|  2> #
|  3> !TPSS def2-TZVP Opt CPCM(WATER)
|  4> * xyz 0 1
|  5>    C       -0.49838         1.45672         0.09896
|  6>    C        0.83636         1.86187         0.13987
|  7>    C        1.85850         0.90964         0.07692
|  8>    C        1.52705        -0.44553         0.10327
|  9>    C        0.19399        -0.85911         0.06588
| 10>    C       -0.81311         0.09845         0.04328
| 11>   Cl       -2.45804        -0.38995        -0.04430
| 12>    O        2.48623        -1.41804         0.15924
| 13>    O        3.19540         1.23915         0.00408
| 14>    C        3.55840         2.36555        -0.71342
| 15>    C        4.59924         3.16189        -0.21840
| 16>    C        4.97545         4.33057        -0.88996
| 17>    C        4.31222         4.69779        -2.05616
| 18>    C        3.30213         3.89395        -2.58058
| 19>    C        2.94419         2.71337        -1.92599
| 20>   Cl        4.74503         6.15332        -2.86475
| 21>   Cl        5.43890         2.74189         1.23085
| 22>    H       -1.28677         2.20447         0.09898
| 23>    H        1.06264         2.92223         0.19335
| 24>    H       -0.04081        -1.92109         0.05235
| 25>    H        3.32941        -0.97731         0.37369
| 26>    H        5.77651         4.95189        -0.49678
| 27>    H        2.78688         4.18033        -3.49530
| 28>    H        2.16802         2.08687        -2.36091
| 29> **                         ****END OF INPUT****
 Total Charge           Charge          ....    0
 Multiplicity           Mult            ....    1
 Number of Electrons    NEL             ....  146
FINAL SINGLE POINT ENERGY     -1992.970329617023
FINAL SINGLE POINT ENERGY     -1992.973938196477
FINAL SINGLE POINT ENERGY     -1992.975137230616
FINAL SINGLE POINT ENERGY     -1992.975315441127
FINAL SINGLE POINT ENERGY     -1992.975418689872
FINAL SINGLE POINT ENERGY     -1992.975470606011
FINAL SINGLE POINT ENERGY     -1992.975574749504
FINAL SINGLE POINT ENERGY     -1992.975670208287
FINAL SINGLE POINT ENERGY     -1992.975763124575
FINAL SINGLE POINT ENERGY     -1992.975843315389
FINAL SINGLE POINT ENERGY     -1992.975854661125
FINAL SINGLE POINT ENERGY     -1992.975857065967
                    ***********************HURRAY********************

CARTESIAN COORDINATES (ANGSTROEM)
---------------------------------
  C     -0.719455    1.329158    0.278936
  C      0.554617    1.891197    0.365955
  C      1.679380    1.091516    0.198082
  C      1.560172   -0.285783   -0.040169
  C      0.287956   -0.859091   -0.122839
  C     -0.826364   -0.039918    0.033721
  Cl    -2.421261   -0.763465   -0.076324
  O      2.654312   -1.083475   -0.189158
  O      2.979815    1.582229    0.352787
  C      3.445698    2.543201   -0.522718
  C      4.596907    3.248676   -0.143078
  C      5.153530    4.212728   -0.979687
  C      4.543728    4.468056   -2.206260
  C      3.403010    3.776365   -2.606560
  C      2.858898    2.812127   -1.760078
  Cl     5.234083    5.685969   -3.259402
  Cl     5.347741    2.913477    1.393786
  H     -1.604580    1.941935    0.405226
  H      0.673861    2.952646    0.561804
  H      0.186986   -1.922863   -0.308728
  H      3.452495   -0.531361   -0.076587
  H      6.041946    4.751755   -0.671726
  H      2.942441    3.979512   -3.567054
  H      1.973524    2.264330   -2.065755

 Multiplicity           Mult            ....    1
 Number of Electrons    NEL             ....  146
 Basis Dimension        Dim             ....  587

ORBITAL ENERGIES
----------------

  NO   OCC          E(Eh)            E(eV)
   0   2.0000    -101.005964     -2748.5120
   1   2.0000    -101.001183     -2748.3819
   2   2.0000    -100.999253     -2748.3294
   3   2.0000     -18.948539      -515.6160
   4   2.0000     -18.926697      -515.0216
   5   2.0000     -10.074386      -274.1380
   6   2.0000     -10.066233      -273.9161
   7   2.0000     -10.062808      -273.8229
   8   2.0000     -10.059654      -273.7371
   9   2.0000     -10.057653      -273.6827
  10   2.0000     -10.056682      -273.6562
  11   2.0000     -10.016589      -272.5653
  12   2.0000     -10.011315      -272.4217
  13   2.0000     -10.010663      -272.4040
  14   2.0000     -10.008763      -272.3523
  15   2.0000     -10.005378      -272.2602
  16   2.0000     -10.002866      -272.1918
  17   2.0000      -9.255884      -251.8654
  18   2.0000      -9.251261      -251.7396
  19   2.0000      -9.249382      -251.6885
  20   2.0000      -7.035438      -191.4440
  21   2.0000      -7.030631      -191.3132
  22   2.0000      -7.028676      -191.2600
  23   2.0000      -7.025471      -191.1728
  24   2.0000      -7.024785      -191.1541
  25   2.0000      -7.020802      -191.0457
  26   2.0000      -7.020364      -191.0338
  27   2.0000      -7.018979      -190.9961
  28   2.0000      -7.018502      -190.9832
  29   2.0000      -1.033851       -28.1325
  30   2.0000      -1.001335       -27.2477
  31   2.0000      -0.850299       -23.1378
  32   2.0000      -0.834528       -22.7087
  33   2.0000      -0.818233       -22.2652
  34   2.0000      -0.783899       -21.3310
  35   2.0000      -0.773668       -21.0526
  36   2.0000      -0.710228       -19.3263
  37   2.0000      -0.707541       -19.2532
  38   2.0000      -0.701565       -19.0906
  39   2.0000      -0.666565       -18.1381
  40   2.0000      -0.601356       -16.3637
  41   2.0000      -0.585566       -15.9341
  42   2.0000      -0.576263       -15.6809
  43   2.0000      -0.556082       -15.1318
  44   2.0000      -0.525082       -14.2882
  45   2.0000      -0.496412       -13.5081
  46   2.0000      -0.469991       -12.7891
  47   2.0000      -0.464854       -12.6493
  48   2.0000      -0.454605       -12.3704
  49   2.0000      -0.436705       -11.8833
  50   2.0000      -0.424473       -11.5505
  51   2.0000      -0.412828       -11.2336
  52   2.0000      -0.407636       -11.0923
  53   2.0000      -0.400217       -10.8905
  54   2.0000      -0.396161       -10.7801
  55   2.0000      -0.378798       -10.3076
  56   2.0000      -0.373678       -10.1683
  57   2.0000      -0.364233        -9.9113
  58   2.0000      -0.361542        -9.8381
  59   2.0000      -0.348746        -9.4899
  60   2.0000      -0.343753        -9.3540
  61   2.0000      -0.335332        -9.1248
  62   2.0000      -0.330379        -8.9901
  63   2.0000      -0.319949        -8.7062
  64   2.0000      -0.296430        -8.0663
  65   2.0000      -0.291797        -7.9402
  66   2.0000      -0.285635        -7.7725
  67   2.0000      -0.285165        -7.7597
  68   2.0000      -0.283784        -7.7221
  69   2.0000      -0.242839        -6.6080
  70   2.0000      -0.234330        -6.3764
  71   2.0000      -0.219313        -5.9678
  72   2.0000      -0.205877        -5.6022
  73   0.0000      -0.062782        -1.7084
  74   0.0000      -0.053875        -1.4660
  75   0.0000      -0.046676        -1.2701
  76   0.0000      -0.037054        -1.0083
  77   0.0000      -0.026262        -0.7146

MULLIKEN ATOMIC CHARGES
-----------------------
   0 C :   -0.188188
   1 C :   -0.163825
   2 C :    0.195525
   3 C :    0.159057
   4 C :   -0.281953
   5 C :    0.208760
   6 Cl:   -0.158052
   7 O :   -0.393468
   8 O :   -0.301817
   9 C :    0.323684
  10 C :    0.015116
  11 C :   -0.182411
  12 C :    0.168129
  13 C :   -0.171791
  14 C :   -0.211392
  15 Cl:   -0.151731
  16 Cl:   -0.128337
  17 H :    0.145974
  18 H :    0.152117
  19 H :    0.139820
  20 H :    0.357251
  21 H :    0.151589
  22 H :    0.149453
  23 H :    0.166491
Sum of atomic charges:    0.0000000

LOEWDIN ATOMIC CHARGES
----------------------
   0 C :   -0.152413
   1 C :   -0.100846
   2 C :   -0.223336
   3 C :   -0.250761
   4 C :   -0.119324
   5 C :   -0.419654
   6 Cl:    0.359700
   7 O :    0.094771
   8 O :    0.310456
   9 C :   -0.237746
  10 C :   -0.399898
  11 C :   -0.138081
  12 C :   -0.424628
  13 C :   -0.132052
  14 C :   -0.102445
  15 Cl:    0.365731
  16 Cl:    0.394193
  17 H :    0.154893
  18 H :    0.164797
  19 H :    0.159234
  20 H :    0.211353
  21 H :    0.160232
  22 H :    0.158430
  23 H :    0.167391

  Mayer bond orders larger than 0.100000
B(  0-C ,  1-C ) :   1.3710 B(  0-C ,  5-C ) :   1.3315 B(  0-C , 17-H ) :   0.9776
B(  1-C ,  2-C ) :   1.3609 B(  1-C , 18-H ) :   0.9657 B(  2-C ,  3-C ) :   1.2933
B(  2-C ,  8-O ) :   0.8411 B(  3-C ,  4-C ) :   1.3578 B(  3-C ,  7-O ) :   1.2079
B(  4-C ,  5-C ) :   1.3539 B(  4-C , 19-H ) :   0.9849 B(  5-C ,  6-Cl) :   0.9034
B(  7-O , 20-H ) :   0.8381 B(  8-O ,  9-C ) :   1.0171 B(  9-C , 10-C ) :   1.2525
B(  9-C , 14-C ) :   1.3544 B( 10-C , 11-C ) :   1.3405 B( 10-C , 16-Cl) :   1.0280
B( 11-C , 12-C ) :   1.3195 B( 11-C , 21-H ) :   0.9767 B( 12-C , 13-C ) :   1.3373
B( 12-C , 15-Cl) :   0.9108 B( 13-C , 14-C ) :   1.3890 B( 13-C , 22-H ) :   0.9759
B( 14-C , 23-H ) :   0.9514

FINAL SINGLE POINT ENERGY     -1992.975857823816

DIPOLE MOMENT
-------------

Method             : SCF
Type of density    : Electron Density
Multiplicity       :   1
Irrep              :   0
Energy             : -1992.9758578238156588 Eh
Relativity type    :
Basis              : AO
                                X                 Y                 Z
Electronic contribution:      4.432432289       3.594077853       0.996138757
Nuclear contribution   :     -4.368107853      -3.140796431      -1.320872798
                        -----------------------------------------
Total Dipole Moment    :      0.064324436       0.453281422      -0.324734041
                        -----------------------------------------
Magnitude (a.u.)       :      0.561296604
Magnitude (Debye)      :      1.426702586

Rotational constants in cm-1:             0.021739             0.004958             0.004378
Rotational constants in MHz :           651.733571           148.635979           131.239792

                             ****ORCA TERMINATED NORMALLY****
TOTAL RUN TIME: 0 days 0 hours 18 minutes 12 seconds 507 msec
