                         Program Version 6.0.0  -   RELEASE   -
|  1> # ORCA input file
|  2> #
|  3> !B3LYP 6-311+G** Opt CPCM(WATER)
|  4> * xyz 0 1
|  5>    O        2.14551        -0.60885         0.52181
|  6>    C        2.63420        -1.80737         0.13543
|  7>    O        2.17162        -2.83239         0.62109
|  8>    C        3.65654        -1.73250        -0.95851
|  9>    C        4.96102        -1.03926        -0.61508
| 10>    C        6.12539        -1.84007        -0.61083
| 11>    C        7.39004        -1.27991        -0.47544
| 12>    C        7.51670         0.09058        -0.30438
| 13>    C        6.37165         0.89145        -0.25876
| 14>    C        5.08221         0.35792        -0.43094
| 15>    N        3.94879         1.20390        -0.53378
| 16>    C        3.84026         2.58058        -0.86585
| 17>    C        4.60199         3.19619        -1.88448
| 18>   Cl        5.54000         2.29292        -3.03255
| 19>    C        4.53823         4.57834        -2.11797
| 20>    C        3.67875         5.38423        -1.37796
| 21>    C        2.87476         4.80277        -0.40530
| 22>    C        2.95948         3.42647        -0.14720
| 23>   Cl        1.91108         2.79105         1.07992
| 24>    H        1.46203        -0.84108         1.18918
| 25>    H        3.20949        -1.27698        -1.84977
| 26>    H        3.86501        -2.77055        -1.24335
| 27>    H        6.05372        -2.91564        -0.76619
| 28>    H        8.27654        -1.91040        -0.52459
| 29>    H        8.50112         0.54295        -0.23421
| 30>    H        6.50961         1.96135        -0.11755
| 31>    H        3.12683         0.82883        -0.05232
| 32>    H        5.14146         5.02526        -2.90632
| 33>    H        3.62186         6.44998        -1.58160
| 34>    H        2.17804         5.43109         0.14743
| 35> *
| 36>
| 37>                          ****END OF INPUT****
 Total Charge           Charge          ....    0
 Multiplicity           Mult            ....    1
 Number of Electrons    NEL             ....  152
FINAL SINGLE POINT ENERGY     -1665.423406518118
FINAL SINGLE POINT ENERGY     -1665.430588431951
FINAL SINGLE POINT ENERGY     -1665.433717034414
FINAL SINGLE POINT ENERGY     -1665.435261696926
FINAL SINGLE POINT ENERGY     -1665.436071584958
FINAL SINGLE POINT ENERGY     -1665.436343434908
FINAL SINGLE POINT ENERGY     -1665.436429707275
FINAL SINGLE POINT ENERGY     -1665.436447884701
FINAL SINGLE POINT ENERGY     -1665.436453912621
FINAL SINGLE POINT ENERGY     -1665.436456685773
FINAL SINGLE POINT ENERGY     -1665.436460982581
FINAL SINGLE POINT ENERGY     -1665.436466737591
FINAL SINGLE POINT ENERGY     -1665.436473879744
FINAL SINGLE POINT ENERGY     -1665.436474252861
FINAL SINGLE POINT ENERGY     -1665.436484235397
FINAL SINGLE POINT ENERGY     -1665.436485743820
                    ***********************HURRAY********************

CARTESIAN COORDINATES (ANGSTROEM)
---------------------------------
  O      2.172766   -0.916158    0.588190
  C      2.731103   -2.023944    0.054784
  O      2.537007   -3.131290    0.504187
  C      3.614507   -1.696483   -1.132390
  C      4.904663   -1.000460   -0.729690
  C      6.054153   -1.766666   -0.511813
  C      7.275065   -1.177266   -0.188878
  C      7.350543    0.210533   -0.075079
  C      6.215669    0.991946   -0.272609
  C      4.986785    0.402981   -0.600253
  N      3.821950    1.184182   -0.804459
  C      3.849782    2.573099   -0.983624
  C      4.443717    3.175064   -2.111465
  Cl     5.163970    2.162016   -3.358063
  C      4.446763    4.550675   -2.307788
  C      3.814092    5.380218   -1.385319
  C      3.184585    4.829611   -0.272900
  C      3.219151    3.453597   -0.082106
  Cl     2.435108    2.790593    1.352132
  H      1.644812   -1.159518    1.367569
  H      3.044135   -1.063311   -1.818485
  H      3.843515   -2.637122   -1.631427
  H      5.988815   -2.844791   -0.618835
  H      8.153991   -1.793008   -0.035454
  H      8.290278    0.689864    0.177296
  H      6.279409    2.068472   -0.164005
  H      3.019038    0.851763   -0.282477
  H      4.921824    4.963851   -3.188605
  H      3.803942    6.452549   -1.538888
  H      2.682790    5.459862    0.450386

 Multiplicity           Mult            ....    1
 Number of Electrons    NEL             ....  152
 Basis Dimension        Dim             ....  500

ORBITAL ENERGIES
----------------

  NO   OCC          E(Eh)            E(eV)
   0   2.0000    -101.564424     -2763.7085
   1   2.0000    -101.561210     -2763.6210
   2   2.0000     -19.181449      -521.9538
   3   2.0000     -19.129168      -520.5311
   4   2.0000     -14.340171      -390.2159
   5   2.0000     -10.321066      -280.8505
   6   2.0000     -10.248840      -278.8851
   7   2.0000     -10.248290      -278.8701
   8   2.0000     -10.244048      -278.7547
   9   2.0000     -10.224353      -278.2188
  10   2.0000     -10.192991      -277.3654
  11   2.0000     -10.192890      -277.3626
  12   2.0000     -10.192653      -277.3562
  13   2.0000     -10.191890      -277.3354
  14   2.0000     -10.188973      -277.2561
  15   2.0000     -10.177560      -276.9455
  16   2.0000     -10.176717      -276.9226
  17   2.0000     -10.174893      -276.8729
  18   2.0000     -10.171311      -276.7755
  19   2.0000      -9.478819      -257.9318
  20   2.0000      -9.475745      -257.8481
  21   2.0000      -7.243264      -197.0992
  22   2.0000      -7.240257      -197.0174
  23   2.0000      -7.233865      -196.8435
  24   2.0000      -7.233556      -196.8351
  25   2.0000      -7.230817      -196.7605
  26   2.0000      -7.230345      -196.7477
  27   2.0000      -1.122991       -30.5581
  28   2.0000      -1.034959       -28.1627
  29   2.0000      -0.967995       -26.3405
  30   2.0000      -0.901229       -24.5237
  31   2.0000      -0.881690       -23.9920
  32   2.0000      -0.856931       -23.3183
  33   2.0000      -0.833107       -22.6700
  34   2.0000      -0.797536       -21.7021
  35   2.0000      -0.765135       -20.8204
  36   2.0000      -0.741302       -20.1718
  37   2.0000      -0.735433       -20.0121
  38   2.0000      -0.718151       -19.5419
  39   2.0000      -0.638938       -17.3864
  40   2.0000      -0.633836       -17.2476
  41   2.0000      -0.619794       -16.8654
  42   2.0000      -0.602906       -16.4059
  43   2.0000      -0.592475       -16.1221
  44   2.0000      -0.545479       -14.8432
  45   2.0000      -0.537786       -14.6339
  46   2.0000      -0.511751       -13.9255
  47   2.0000      -0.503440       -13.6993
  48   2.0000      -0.496393       -13.5076
  49   2.0000      -0.492411       -13.3992
  50   2.0000      -0.482187       -13.1210
  51   2.0000      -0.466861       -12.7039
  52   2.0000      -0.458511       -12.4767
  53   2.0000      -0.453289       -12.3346
  54   2.0000      -0.443451       -12.0669
  55   2.0000      -0.441420       -12.0116
  56   2.0000      -0.416630       -11.3371
  57   2.0000      -0.415432       -11.3045
  58   2.0000      -0.409761       -11.1502
  59   2.0000      -0.403159       -10.9705
  60   2.0000      -0.395035       -10.7494
  61   2.0000      -0.386255       -10.5105
  62   2.0000      -0.378797       -10.3076
  63   2.0000      -0.370627       -10.0853
  64   2.0000      -0.358419        -9.7531
  65   2.0000      -0.352727        -9.5982
  66   2.0000      -0.342390        -9.3169
  67   2.0000      -0.330964        -9.0060
  68   2.0000      -0.330165        -8.9843
  69   2.0000      -0.328691        -8.9441
  70   2.0000      -0.316981        -8.6255
  71   2.0000      -0.301309        -8.1990
  72   2.0000      -0.265840        -7.2339
  73   2.0000      -0.257553        -7.0084
  74   2.0000      -0.256089        -6.9685
  75   2.0000      -0.217950        -5.9307
  76   0.0000      -0.036363        -0.9895
  77   0.0000      -0.034810        -0.9472
  78   0.0000      -0.024029        -0.6539
  79   0.0000      -0.012442        -0.3386
  80   0.0000      -0.009514        -0.2589

MULLIKEN ATOMIC CHARGES
-----------------------
   0 O :   -0.279118
   1 C :    0.098114
   2 O :   -0.360377
   3 C :   -0.511238
   4 C :    0.895940
   5 C :   -0.395696
   6 C :   -0.090399
   7 C :   -0.280583
   8 C :   -0.505070
   9 C :   -0.313166
  10 N :    0.288109
  11 C :   -3.709186
  12 C :    2.471737
  13 Cl:    0.121163
  14 C :   -0.553846
  15 C :   -0.030472
  16 C :   -0.695291
  17 C :    1.328752
  18 Cl:    0.273434
  19 H :    0.353605
  20 H :    0.215934
  21 H :    0.204448
  22 H :    0.154614
  23 H :    0.155014
  24 H :    0.156481
  25 H :    0.172088
  26 H :    0.296468
  27 H :    0.182182
  28 H :    0.173164
  29 H :    0.183195
Sum of atomic charges:   -0.0000000

LOEWDIN ATOMIC CHARGES
----------------------
   0 O :   -0.073298
   1 C :    0.013854
   2 O :   -0.220414
   3 C :   -0.048549
   4 C :   -0.104403
   5 C :   -0.051489
   6 C :   -0.081815
   7 C :   -0.057152
   8 C :   -0.074251
   9 C :   -0.066876
  10 N :   -0.092426
  11 C :   -0.118563
  12 C :   -0.230185
  13 Cl:    0.256836
  14 C :   -0.075453
  15 C :   -0.051368
  16 C :   -0.074661
  17 C :   -0.230086
  18 Cl:    0.232289
  19 H :    0.162452
  20 H :    0.111850
  21 H :    0.102935
  22 H :    0.091659
  23 H :    0.080271
  24 H :    0.082282
  25 H :    0.100210
  26 H :    0.133870
  27 H :    0.097019
  28 H :    0.088584
  29 H :    0.096878

  Mayer bond orders larger than 0.100000
B(  0-O ,  1-C ) :   1.2011 B(  0-O ,  9-C ) :  -0.1807 B(  0-O , 11-C ) :   0.2044
B(  0-O , 17-C ) :  -0.2578 B(  0-O , 19-H ) :   0.8442 B(  1-C ,  2-O ) :   1.9148
B(  1-C ,  3-C ) :   1.0342 B(  1-C ,  4-C ) :  -0.2602 B(  1-C ,  9-C ) :   0.2449
B(  2-O ,  3-C ) :   0.1294 B(  2-O ,  5-C ) :  -0.2284 B(  2-O ,  9-C ) :   0.1667
B(  3-C ,  4-C ) :   0.1849 B(  3-C ,  5-C ) :  -0.3473 B(  3-C ,  9-C ) :   0.4508
B(  3-C , 10-N ) :  -0.2257 B(  3-C , 11-C ) :  -0.2696 B(  3-C , 14-C ) :   0.1442
B(  3-C , 17-C ) :   0.1634 B(  3-C , 20-H ) :   1.1309 B(  3-C , 21-H ) :   0.9825
B(  4-C ,  5-C ) :   0.9397 B(  4-C ,  6-C ) :  -0.2761 B(  4-C ,  7-C ) :   0.2710
B(  4-C ,  8-C ) :   0.2761 B(  4-C ,  9-C ) :   2.0363 B(  4-C , 11-C ) :   0.2004
B(  4-C , 12-C ) :  -0.9671 B(  4-C , 13-Cl) :   0.2869 B(  4-C , 14-C ) :   1.2920
B(  4-C , 16-C ) :   0.3116 B(  4-C , 17-C ) :  -0.8041 B(  4-C , 18-Cl) :  -0.1301
B(  4-C , 20-H ) :  -0.3214 B(  4-C , 26-H ) :  -0.1492 B(  5-C ,  6-C ) :   1.3918
B(  5-C ,  7-C ) :   0.1571 B(  5-C ,  8-C ) :  -0.2002 B(  5-C ,  9-C ) :   0.6339
B(  5-C , 11-C ) :   0.1260 B(  5-C , 12-C ) :  -0.1578 B(  5-C , 14-C ) :   0.1341
B(  5-C , 20-H ) :  -0.1455 B(  5-C , 22-H ) :   0.9346 B(  6-C ,  7-C ) :   1.4082
B(  6-C ,  9-C ) :   0.1874 B(  6-C , 14-C ) :   0.1337 B(  6-C , 17-C ) :  -0.1479
B(  6-C , 23-H ) :   0.9768 B(  7-C ,  8-C ) :   1.1715 B(  7-C ,  9-C ) :  -0.1986
B(  7-C , 11-C ) :   0.2960 B(  7-C , 13-Cl) :  -0.1156 B(  7-C , 14-C ) :  -0.1272
B(  7-C , 15-C ) :  -0.1156 B(  7-C , 16-C ) :   0.1544 B(  7-C , 24-H ) :   0.9823
B(  7-C , 25-H ) :  -0.1361 B(  8-C ,  9-C ) :   1.5484 B(  8-C , 10-N ) :  -0.3715
B(  8-C , 11-C ) :   0.7542 B(  8-C , 13-Cl) :   0.6397 B(  8-C , 14-C ) :  -0.4391
B(  8-C , 16-C ) :   0.1156 B(  8-C , 18-Cl) :   0.2401 B(  8-C , 25-H ) :   0.9799
B(  8-C , 26-H ) :   0.1039 B(  9-C , 10-N ) :   1.0636 B(  9-C , 11-C ) :  -0.3142
B(  9-C , 12-C ) :   0.7847 B(  9-C , 13-Cl) :  -0.8363 B(  9-C , 14-C ) :  -1.3687
B(  9-C , 16-C ) :  -0.5784 B(  9-C , 17-C ) :   1.0057 B(  9-C , 18-Cl) :  -0.1035
B(  9-C , 20-H ) :   0.3004 B(  9-C , 26-H ) :   0.1058 B( 10-N , 11-C ) :   0.9823
B( 10-N , 13-Cl) :  -0.1220 B( 10-N , 18-Cl) :  -0.1969 B( 10-N , 26-H ) :   0.8661
B( 11-C , 12-C ) :  -2.5548 B( 11-C , 13-Cl) :   2.6039 B( 11-C , 14-C ) :  -0.4825
B( 11-C , 15-C ) :  -0.3049 B( 11-C , 16-C ) :   0.4124 B( 11-C , 17-C ) :   0.7132
B( 11-C , 18-Cl) :   2.0402 B( 11-C , 29-H ) :   0.1530 B( 12-C , 13-Cl) :  -2.7602
B( 12-C , 14-C ) :   1.3606 B( 12-C , 16-C ) :  -0.4048 B( 12-C , 17-C ) :   1.6396
B( 12-C , 18-Cl) :   0.2636 B( 13-Cl, 14-C ) :   0.6835 B( 13-Cl, 15-C ) :   0.1071
B( 13-Cl, 16-C ) :   0.2168 B( 13-Cl, 17-C ) :   0.3785 B( 14-C , 15-C ) :   1.2934
B( 14-C , 16-C ) :   0.5751 B( 14-C , 18-Cl) :   0.1551 B( 14-C , 27-H ) :   0.9294
B( 15-C , 16-C ) :   1.1555 B( 15-C , 17-C ) :   0.1843 B( 15-C , 18-Cl) :   0.1306
B( 15-C , 28-H ) :   0.9584 B( 16-C , 17-C ) :   0.9473 B( 16-C , 18-Cl) :   0.6628
B( 16-C , 29-H ) :   0.9785 B( 17-C , 18-Cl) :  -2.0544 B( 17-C , 26-H ) :  -0.1220
B( 17-C , 29-H ) :  -0.1279

FINAL SINGLE POINT ENERGY     -1665.436486528959

DIPOLE MOMENT
-------------

Method             : SCF
Type of density    : Electron Density
Multiplicity       :   1
Irrep              :   0
Energy             : -1665.4364865289585396 Eh
Relativity type    :
Basis              : AO
                                X                 Y                 Z
Electronic contribution:     -6.287028650       7.144597778      -1.012190585
Nuclear contribution   :      6.143414265      -5.548105004       1.040065910
                        -----------------------------------------
Total Dipole Moment    :     -0.143614385       1.596492774       0.027875325
                        -----------------------------------------
Magnitude (a.u.)       :      1.603181619
Magnitude (Debye)      :      4.074963832

Rotational constants in cm-1:             0.014072             0.008115             0.006304
Rotational constants in MHz :           421.878513           243.295843           188.990066

                             ****ORCA TERMINATED NORMALLY****
TOTAL RUN TIME: 0 days 1 hours 58 minutes 13 seconds 703 msec
