                         Program Version 6.0.0  -   RELEASE   -
|  1> # ORCA input file
|  2> #
|  3> !TPSS def2-TZVP Opt CPCM(WATER)
|  4> * xyz 0 1
|  5>    C        2.95021        -0.38900         1.26274
|  6>    C        2.52045        -1.27848         0.09338
|  7>    C        0.99553        -1.40741         0.07675
|  8>    C        3.03305        -0.73504        -1.25720
|  9>    C        4.54216        -0.63179        -1.32375
| 10>    C        5.34421        -1.77303        -1.21037
| 11>    C        6.73846        -1.66838        -1.22843
| 12>    C        7.36134        -0.42186        -1.38715
| 13>    C        6.55228         0.71875        -1.50569
| 14>    C        5.15995         0.61450        -1.47446
| 15>    C        8.87998        -0.34092        -1.48484
| 16>    C        9.28189         0.24772        -2.84195
| 17>    C        9.61173         0.40524        -0.37163
| 18>    O        8.87745         0.76600         0.70549
| 19>    O       10.81195         0.64384        -0.41318
| 20>    H        2.59304        -0.80141         2.21203
| 21>    H        2.55000         0.62512         1.15790
| 22>    H        4.04024        -0.31777         1.33342
| 23>    H        2.93334        -2.27988         0.25826
| 24>    H        0.51345        -0.43617        -0.07745
| 25>    H        0.63424        -1.81602         1.02656
| 26>    H        0.66784        -2.08146        -0.72144
| 27>    H        2.58341         0.24756        -1.45114
| 28>    H        2.69896        -1.38702        -2.07513
| 29>    H        4.88886        -2.75489        -1.10326
| 30>    H        7.32748        -2.57887        -1.13792
| 31>    H        6.99599         1.70432        -1.63567
| 32>    H        4.56054         1.51848        -1.56984
| 33>    H        9.27510        -1.36482        -1.43749
| 34>    H        8.93076         1.27903        -2.95691
| 35>    H        8.86386        -0.34431        -3.66356
| 36>    H       10.37078         0.26519        -2.96132
| 37>    H        7.93807         0.51129         0.66734
| 38> *
| 39>
| 40>                          ****END OF INPUT****
 Total Charge           Charge          ....    0
 Multiplicity           Mult            ....    1
 Number of Electrons    NEL             ....  112
FINAL SINGLE POINT ENERGY      -657.061058492722
FINAL SINGLE POINT ENERGY      -657.063329495894
FINAL SINGLE POINT ENERGY      -657.063822129644
FINAL SINGLE POINT ENERGY      -657.064044587925
FINAL SINGLE POINT ENERGY      -657.064275022389
FINAL SINGLE POINT ENERGY      -657.064325937228
FINAL SINGLE POINT ENERGY      -657.064359153820
FINAL SINGLE POINT ENERGY      -657.064407617882
FINAL SINGLE POINT ENERGY      -657.064455335928
FINAL SINGLE POINT ENERGY      -657.064509920631
FINAL SINGLE POINT ENERGY      -657.064573905042
FINAL SINGLE POINT ENERGY      -657.064637938954
FINAL SINGLE POINT ENERGY      -657.064693298553
FINAL SINGLE POINT ENERGY      -657.064712743497
FINAL SINGLE POINT ENERGY      -657.064720364502
FINAL SINGLE POINT ENERGY      -657.064722103955
                    ***********************HURRAY********************

CARTESIAN COORDINATES (ANGSTROEM)
---------------------------------
  C      2.834061   -0.169129    1.258620
  C      2.515804   -1.202554    0.169322
  C      1.006242   -1.474372    0.097115
  C      3.040851   -0.759071   -1.220817
  C      4.545685   -0.634115   -1.307524
  C      5.362200   -1.774212   -1.299046
  C      6.751912   -1.666750   -1.365434
  C      7.373638   -0.413341   -1.449496
  C      6.561151    0.729989   -1.461841
  C      5.172715    0.617986   -1.390636
  C      8.890084   -0.305324   -1.551617
  C      9.365692    0.259741   -2.899226
  C      9.494945    0.475693   -0.379810
  O      8.989365    0.195556    0.849774
  O     10.402075    1.280067   -0.469532
  H      2.472045   -0.512517    2.234542
  H      2.346539    0.788537    1.034790
  H      3.911557    0.011337    1.340654
  H      3.021453   -2.143592    0.428545
  H      0.462163   -0.561060   -0.175843
  H      0.624349   -1.817326    1.065637
  H      0.777480   -2.241440   -0.651918
  H      2.578790    0.202017   -1.480946
  H      2.699423   -1.494066   -1.961781
  H      4.906449   -2.760800   -1.244306
  H      7.363359   -2.566817   -1.360833
  H      7.014283    1.717163   -1.527269
  H      4.562916    1.518927   -1.402449
  H      9.296298   -1.321222   -1.437910
  H      8.996114    1.278691   -3.048391
  H      8.990123   -0.369220   -3.711341
  H     10.457858    0.277290   -2.943713
  H      8.238982   -0.427557    0.766770

 Multiplicity           Mult            ....    1
 Number of Electrons    NEL             ....  112
 Basis Dimension        Dim             ....  573

ORBITAL ENERGIES
----------------

  NO   OCC          E(Eh)            E(eV)
   0   2.0000     -18.931879      -515.1626
   1   2.0000     -18.878135      -513.7002
   2   2.0000     -10.116655      -275.2882
   3   2.0000     -10.015217      -272.5279
   4   2.0000     -10.001751      -272.1615
   5   2.0000      -9.995395      -271.9885
   6   2.0000      -9.991679      -271.8874
   7   2.0000      -9.991312      -271.8774
   8   2.0000      -9.988222      -271.7933
   9   2.0000      -9.987826      -271.7826
  10   2.0000      -9.986658      -271.7508
  11   2.0000      -9.982154      -271.6282
  12   2.0000      -9.981483      -271.6100
  13   2.0000      -9.969488      -271.2836
  14   2.0000      -9.968516      -271.2571
  15   2.0000      -1.033181       -28.1143
  16   2.0000      -0.954498       -25.9732
  17   2.0000      -0.804904       -21.9025
  18   2.0000      -0.758392       -20.6369
  19   2.0000      -0.734242       -19.9797
  20   2.0000      -0.691441       -18.8151
  21   2.0000      -0.685465       -18.6524
  22   2.0000      -0.627352       -17.0711
  23   2.0000      -0.624749       -17.0003
  24   2.0000      -0.602433       -16.3930
  25   2.0000      -0.565464       -15.3871
  26   2.0000      -0.556653       -15.1473
  27   2.0000      -0.534887       -14.5550
  28   2.0000      -0.508721       -13.8430
  29   2.0000      -0.479626       -13.0513
  30   2.0000      -0.456195       -12.4137
  31   2.0000      -0.432185       -11.7603
  32   2.0000      -0.417225       -11.3533
  33   2.0000      -0.413674       -11.2567
  34   2.0000      -0.402505       -10.9527
  35   2.0000      -0.402003       -10.9391
  36   2.0000      -0.392611       -10.6835
  37   2.0000      -0.381072       -10.3695
  38   2.0000      -0.378914       -10.3108
  39   2.0000      -0.376099       -10.2342
  40   2.0000      -0.363556        -9.8929
  41   2.0000      -0.346503        -9.4288
  42   2.0000      -0.341172        -9.2838
  43   2.0000      -0.335107        -9.1187
  44   2.0000      -0.326576        -8.8866
  45   2.0000      -0.322423        -8.7736
  46   2.0000      -0.321391        -8.7455
  47   2.0000      -0.305676        -8.3179
  48   2.0000      -0.299550        -8.1512
  49   2.0000      -0.291750        -7.9389
  50   2.0000      -0.288196        -7.8422
  51   2.0000      -0.284759        -7.7487
  52   2.0000      -0.281304        -7.6547
  53   2.0000      -0.247761        -6.7419
  54   2.0000      -0.233421        -6.3517
  55   2.0000      -0.217322        -5.9136
  56   0.0000      -0.044612        -1.2139
  57   0.0000      -0.043677        -1.1885
  58   0.0000      -0.030483        -0.8295
  59   0.0000       0.023013         0.6262
  60   0.0000       0.035530         0.9668

MULLIKEN ATOMIC CHARGES
-----------------------
   0 C :   -0.387806
   1 C :   -0.016390
   2 C :   -0.362178
   3 C :   -0.173263
   4 C :    0.165581
   5 C :   -0.223020
   6 C :   -0.156139
   7 C :   -0.046329
   8 C :   -0.173742
   9 C :   -0.199441
  10 C :    0.070193
  11 C :   -0.396503
  12 C :    0.239787
  13 O :   -0.346783
  14 O :   -0.359415
  15 H :    0.122218
  16 H :    0.108719
  17 H :    0.127941
  18 H :    0.072131
  19 H :    0.111177
  20 H :    0.122069
  21 H :    0.120089
  22 H :    0.109890
  23 H :    0.106567
  24 H :    0.120659
  25 H :    0.121006
  26 H :    0.125593
  27 H :    0.115862
  28 H :    0.118417
  29 H :    0.132242
  30 H :    0.132612
  31 H :    0.133793
  32 H :    0.364460
Sum of atomic charges:   -0.0000000

LOEWDIN ATOMIC CHARGES
----------------------
   0 C :   -0.284773
   1 C :   -0.294254
   2 C :   -0.286277
   3 C :   -0.190995
   4 C :   -0.140997
   5 C :   -0.108849
   6 C :   -0.114192
   7 C :   -0.148250
   8 C :   -0.106621
   9 C :   -0.111740
  10 C :   -0.210030
  11 C :   -0.259594
  12 C :   -0.465696
  13 O :    0.102720
  14 O :    0.067729
  15 H :    0.120130
  16 H :    0.120613
  17 H :    0.120125
  18 H :    0.148372
  19 H :    0.120317
  20 H :    0.119965
  21 H :    0.119328
  22 H :    0.145797
  23 H :    0.148551
  24 H :    0.152249
  25 H :    0.152973
  26 H :    0.154786
  27 H :    0.151355
  28 H :    0.183964
  29 H :    0.126155
  30 H :    0.127445
  31 H :    0.125407
  32 H :    0.214286

  Mayer bond orders larger than 0.100000
B(  0-C ,  1-C ) :   1.0077 B(  0-C , 15-H ) :   0.9662 B(  0-C , 16-H ) :   0.9633
B(  0-C , 17-H ) :   0.9649 B(  1-C ,  2-C ) :   0.9848 B(  1-C ,  3-C ) :   1.0029
B(  1-C , 18-H ) :   0.9368 B(  2-C , 19-H ) :   0.9646 B(  2-C , 20-H ) :   0.9673
B(  2-C , 21-H ) :   0.9664 B(  3-C ,  4-C ) :   0.9529 B(  3-C , 22-H ) :   0.9482
B(  3-C , 23-H ) :   0.9314 B(  4-C ,  5-C ) :   1.3126 B(  4-C ,  9-C ) :   1.3243
B(  5-C ,  6-C ) :   1.3947 B(  5-C , 24-H ) :   0.9999 B(  6-C ,  7-C ) :   1.3376
B(  6-C , 25-H ) :   0.9910 B(  7-C ,  8-C ) :   1.3405 B(  7-C , 10-C ) :   0.9238
B(  8-C ,  9-C ) :   1.4003 B(  8-C , 26-H ) :   0.9941 B(  9-C , 27-H ) :   0.9951
B( 10-C , 11-C ) :   0.9930 B( 10-C , 12-C ) :   0.9742 B( 10-C , 28-H ) :   0.8826
B( 11-C , 29-H ) :   0.9648 B( 11-C , 30-H ) :   0.9624 B( 11-C , 31-H ) :   0.9571
B( 12-C , 13-O ) :   1.2298 B( 12-C , 14-O ) :   2.0604 B( 13-O , 32-H ) :   0.8339

FINAL SINGLE POINT ENERGY      -657.064722579984

DIPOLE MOMENT
-------------

Method             : SCF
Type of density    : Electron Density
Multiplicity       :   1
Irrep              :   0
Energy             :  -657.0647225799839362 Eh
Relativity type    :
Basis              : AO
                                X                 Y                 Z
Electronic contribution:     19.173208193       3.044491203      -0.613816059
Nuclear contribution   :    -21.073934870      -4.609485246       0.072892054
                        -----------------------------------------
Total Dipole Moment    :     -1.900726677      -1.564994044      -0.540924004
                        -----------------------------------------
Magnitude (a.u.)       :      2.520826657
Magnitude (Debye)      :      6.407432155

Rotational constants in cm-1:             0.048136             0.008473             0.007977
Rotational constants in MHz :          1443.075885           254.021331           239.132988

                             ****ORCA TERMINATED NORMALLY****
TOTAL RUN TIME: 0 days 0 hours 25 minutes 3 seconds 714 msec
