                         Program Version 6.0.0  -   RELEASE   -
|  1> # ORCA input file
|  2> #
|  3> !B3LYP STO-3G Opt CPCM(WATER)
|  4> * xyz 0 1
|  5>    C        2.84251         1.01411        -0.69096
|  6>    C        2.43769        -0.00906         0.37461
|  7>    C        0.91575        -0.01278         0.53493
|  8>    C        2.94670        -1.42385         0.03470
|  9>    C        4.45251        -1.51309        -0.08791
| 10>    C        5.27723        -1.21555         1.00286
| 11>    C        6.66758        -1.27499         0.88204
| 12>    C        7.26810        -1.65638        -0.32751
| 13>    C        6.43770        -1.95835        -1.41751
| 14>    C        5.04670        -1.88539        -1.29902
| 15>    C        8.78387        -1.78842        -0.41169
| 16>    C        9.16418        -3.23508        -0.74382
| 17>    C        9.51321        -0.83979        -1.36214
| 18>    O        8.78146         0.15695        -1.90506
| 19>    O       10.71031        -0.94017        -1.60515
| 20>    H        2.47037         2.01046        -0.43077
| 21>    H        2.43869         0.74424        -1.67252
| 22>    H        3.93059         1.08959        -0.77972
| 23>    H        2.86857         0.31218         1.33176
| 24>    H        0.41895        -0.36301        -0.37626
| 25>    H        0.54619         0.99434         0.75501
| 26>    H        0.61306        -0.66604         1.36024
| 27>    H        2.47811        -1.76575        -0.89972
| 28>    H        2.62532        -2.13383         0.80693
| 29>    H        4.84079        -0.93717         1.96023
| 30>    H        7.27498        -1.03913         1.75499
| 31>    H        6.86200        -2.26456        -2.37291
| 32>    H        4.42920        -2.12815        -2.16163
| 33>    H        9.19524        -1.55445         0.58086
| 34>    H        8.80273        -3.53129        -1.73562
| 35>    H        8.74197        -3.93027        -0.01021
| 36>    H       10.25123        -3.36973        -0.74622
| 37>    H        7.84710         0.18033        -1.63398
| 38> *
| 39>
| 40>                          ****END OF INPUT****
 Total Charge           Charge          ....    0
 Multiplicity           Mult            ....    1
 Number of Electrons    NEL             ....  112
FINAL SINGLE POINT ENERGY      -648.055807534405
FINAL SINGLE POINT ENERGY      -648.073611248941
FINAL SINGLE POINT ENERGY      -648.076016545998
FINAL SINGLE POINT ENERGY      -648.076457413035
FINAL SINGLE POINT ENERGY      -648.076549382926
FINAL SINGLE POINT ENERGY      -648.076706130386
FINAL SINGLE POINT ENERGY      -648.076831421214
FINAL SINGLE POINT ENERGY      -648.076934495016
FINAL SINGLE POINT ENERGY      -648.076988149990
FINAL SINGLE POINT ENERGY      -648.077038218419
FINAL SINGLE POINT ENERGY      -648.077063747439
FINAL SINGLE POINT ENERGY      -648.077075024464
FINAL SINGLE POINT ENERGY      -648.077082616672
FINAL SINGLE POINT ENERGY      -648.077084294603
                    ***********************HURRAY********************

CARTESIAN COORDINATES (ANGSTROEM)
---------------------------------
  C      2.761734    0.924814   -0.994842
  C      2.424990    0.076579    0.270811
  C      0.892293    0.109334    0.567448
  C      2.912385   -1.413546    0.116194
  C      4.444035   -1.540420   -0.022312
  C      5.287568   -1.352442    1.099140
  C      6.685880   -1.455478    0.977531
  C      7.286277   -1.751866   -0.270421
  C      6.442666   -1.941923   -1.393646
  C      5.045528   -1.836427   -1.269860
  C      8.824352   -1.874631   -0.393535
  C      9.286899   -3.288921   -0.868711
  C      9.435540   -0.762322   -1.366723
  O      8.767171    0.490669   -1.361143
  O     10.451413   -0.916947   -2.079901
  H      2.442510    1.968749   -0.851313
  H      2.243563    0.521515   -1.878812
  H      3.844531    0.915220   -1.192058
  H      2.955171    0.517936    1.136676
  H      0.327491   -0.331374   -0.268851
  H      0.550948    1.146826    0.707882
  H      0.662052   -0.460236    1.481253
  H      2.426869   -1.861312   -0.768047
  H      2.582263   -1.978859    1.006591
  H      4.843686   -1.127396    2.079022
  H      7.322638   -1.308458    1.861484
  H      6.884995   -2.171789   -2.373199
  H      4.409706   -1.990020   -2.153010
  H      9.261743   -1.680346    0.606283
  H      8.816587   -3.550695   -1.828553
  H      9.013929   -4.050011   -0.121593
  H     10.380081   -3.293773   -1.001737
  H      7.963097    0.333466   -0.743217

 Multiplicity           Mult            ....    1
 Number of Electrons    NEL             ....  112
 Basis Dimension        Dim             ....   93

ORBITAL ENERGIES
----------------

  NO   OCC          E(Eh)            E(eV)
   0   2.0000     -18.921184      -514.8716
   1   2.0000     -18.861278      -513.2415
   2   2.0000     -10.093971      -274.6709
   3   2.0000     -10.034395      -273.0498
   4   2.0000     -10.017138      -272.5802
   5   2.0000     -10.012066      -272.4422
   6   2.0000     -10.011414      -272.4244
   7   2.0000     -10.010218      -272.3919
   8   2.0000     -10.007298      -272.3124
   9   2.0000     -10.002434      -272.1801
  10   2.0000     -10.002216      -272.1741
  11   2.0000      -9.999884      -272.1107
  12   2.0000      -9.999435      -272.0985
  13   2.0000      -9.995036      -271.9788
  14   2.0000      -9.993924      -271.9485
  15   2.0000      -1.002356       -27.2755
  16   2.0000      -0.930496       -25.3201
  17   2.0000      -0.808394       -21.9975
  18   2.0000      -0.762278       -20.7426
  19   2.0000      -0.737295       -20.0628
  20   2.0000      -0.695487       -18.9252
  21   2.0000      -0.688963       -18.7476
  22   2.0000      -0.639643       -17.4056
  23   2.0000      -0.632225       -17.2037
  24   2.0000      -0.594833       -16.1862
  25   2.0000      -0.561081       -15.2678
  26   2.0000      -0.536362       -14.5951
  27   2.0000      -0.516599       -14.0574
  28   2.0000      -0.494576       -13.4581
  29   2.0000      -0.457182       -12.4406
  30   2.0000      -0.441523       -12.0144
  31   2.0000      -0.424230       -11.5439
  32   2.0000      -0.409456       -11.1419
  33   2.0000      -0.394987       -10.7481
  34   2.0000      -0.390247       -10.6192
  35   2.0000      -0.386615       -10.5203
  36   2.0000      -0.371035       -10.0964
  37   2.0000      -0.362607        -9.8670
  38   2.0000      -0.358497        -9.7552
  39   2.0000      -0.344528        -9.3751
  40   2.0000      -0.343476        -9.3465
  41   2.0000      -0.334482        -9.1017
  42   2.0000      -0.330943        -9.0054
  43   2.0000      -0.318483        -8.6664
  44   2.0000      -0.308191        -8.3863
  45   2.0000      -0.299068        -8.1381
  46   2.0000      -0.287993        -7.8367
  47   2.0000      -0.285297        -7.7633
  48   2.0000      -0.278024        -7.5654
  49   2.0000      -0.276538        -7.5250
  50   2.0000      -0.265986        -7.2378
  51   2.0000      -0.262285        -7.1371
  52   2.0000      -0.192284        -5.2323
  53   2.0000      -0.184361        -5.0167
  54   2.0000      -0.177457        -4.8288
  55   2.0000      -0.142422        -3.8755
  56   0.0000       0.081491         2.2175
  57   0.0000       0.090676         2.4674
  58   0.0000       0.109768         2.9869
  59   0.0000       0.234789         6.3889
  60   0.0000       0.291952         7.9444

MULLIKEN ATOMIC CHARGES
-----------------------
   0 C :   -0.222342
   1 C :   -0.038884
   2 C :   -0.221133
   3 C :   -0.138187
   4 C :   -0.000097
   5 C :   -0.088443
   6 C :   -0.087504
   7 C :   -0.024098
   8 C :   -0.088744
   9 C :   -0.087387
  10 C :   -0.078150
  11 C :   -0.218003
  12 C :    0.206350
  13 O :   -0.232268
  14 O :   -0.233773
  15 H :    0.072568
  16 H :    0.071512
  17 H :    0.073344
  18 H :    0.068768
  19 H :    0.072107
  20 H :    0.073182
  21 H :    0.072636
  22 H :    0.076521
  23 H :    0.078675
  24 H :    0.083768
  25 H :    0.085074
  26 H :    0.085342
  27 H :    0.083791
  28 H :    0.091762
  29 H :    0.080742
  30 H :    0.081662
  31 H :    0.083431
  32 H :    0.217778
Sum of atomic charges:    0.0000000

LOEWDIN ATOMIC CHARGES
----------------------
   0 C :   -0.125303
   1 C :    0.005014
   2 C :   -0.123672
   3 C :   -0.069434
   4 C :    0.008118
   5 C :   -0.054745
   6 C :   -0.053142
   7 C :   -0.017244
   8 C :   -0.053975
   9 C :   -0.053791
  10 C :   -0.040774
  11 C :   -0.117233
  12 C :    0.134346
  13 O :   -0.147177
  14 O :   -0.184177
  15 H :    0.039082
  16 H :    0.038076
  17 H :    0.039710
  18 H :    0.031890
  19 H :    0.038475
  20 H :    0.039556
  21 H :    0.039003
  22 H :    0.040480
  23 H :    0.042715
  24 H :    0.046717
  25 H :    0.047696
  26 H :    0.048018
  27 H :    0.046685
  28 H :    0.052511
  29 H :    0.045384
  30 H :    0.046138
  31 H :    0.047686
  32 H :    0.163365

  Mayer bond orders larger than 0.100000
B(  0-C ,  1-C ) :   0.9922 B(  0-C , 15-H ) :   0.9779 B(  0-C , 16-H ) :   0.9783
B(  0-C , 17-H ) :   0.9764 B(  1-C ,  2-C ) :   0.9897 B(  1-C ,  3-C ) :   0.9644
B(  1-C , 18-H ) :   0.9602 B(  2-C , 19-H ) :   0.9783 B(  2-C , 20-H ) :   0.9776
B(  2-C , 21-H ) :   0.9779 B(  3-C ,  4-C ) :   0.9921 B(  3-C , 22-H ) :   0.9670
B(  3-C , 23-H ) :   0.9625 B(  4-C ,  5-C ) :   1.4037 B(  4-C ,  7-C ) :   0.1097
B(  4-C ,  9-C ) :   1.3995 B(  5-C ,  6-C ) :   1.4394 B(  5-C ,  8-C ) :   0.1115
B(  5-C , 24-H ) :   0.9606 B(  6-C ,  7-C ) :   1.3949 B(  6-C ,  9-C ) :   0.1079
B(  6-C , 25-H ) :   0.9598 B(  7-C ,  8-C ) :   1.3898 B(  7-C , 10-C ) :   0.9797
B(  8-C ,  9-C ) :   1.4447 B(  8-C , 26-H ) :   0.9598 B(  9-C , 27-H ) :   0.9605
B( 10-C , 11-C ) :   0.9821 B( 10-C , 12-C ) :   0.8766 B( 10-C , 28-H ) :   0.9490
B( 11-C , 29-H ) :   0.9765 B( 11-C , 30-H ) :   0.9766 B( 11-C , 31-H ) :   0.9737
B( 12-C , 13-O ) :   1.0670 B( 12-C , 14-O ) :   1.8993 B( 13-O , 14-O ) :   0.2269
B( 13-O , 32-H ) :   0.9003

FINAL SINGLE POINT ENERGY      -648.077084737348

DIPOLE MOMENT
-------------

Method             : SCF
Type of density    : Electron Density
Multiplicity       :   1
Irrep              :   0
Energy             :  -648.0770847373482866 Eh
Relativity type    :
Basis              : AO
                                X                 Y                 Z
Electronic contribution:     19.957844852      -0.941913347      -3.360457236
Nuclear contribution   :    -21.212591747       0.676415723       4.279740730
                        -----------------------------------------
Total Dipole Moment    :     -1.254746895      -0.265497624       0.919283494
                        -----------------------------------------
Magnitude (a.u.)       :      1.577960995
Magnitude (Debye)      :      4.010858100

Rotational constants in cm-1:             0.046362             0.008343             0.007816
Rotational constants in MHz :          1389.908875           250.122311           234.328709

                             ****ORCA TERMINATED NORMALLY****
TOTAL RUN TIME: 0 days 0 hours 8 minutes 24 seconds 567 msec
